SLURM_NODELIST orfoz242
NUMBER OF TASKS 1
NUMBER OF CORES=112
 Entering Gaussian System, Link 0=/arf/sw/apps/gaussian/avx/g16/g16
 Initial command:
 /arf/sw/apps/gaussian/avx/g16/l1.exe "/tmp/5347247/Gau-546371.inp" -scrdir="/tmp/5347247/"
 Entering Link 1 = /arf/sw/apps/gaussian/avx/g16/l1.exe PID=    546375.
  
 Copyright (c) 1988-2019, Gaussian, Inc.  All Rights Reserved.
  
 This is part of the Gaussian(R) 16 program.  It is based on
 the Gaussian(R) 09 system (copyright 2009, Gaussian, Inc.),
 the Gaussian(R) 03 system (copyright 2003, Gaussian, Inc.),
 the Gaussian(R) 98 system (copyright 1998, Gaussian, Inc.),
 the Gaussian(R) 94 system (copyright 1995, Gaussian, Inc.),
 the Gaussian 92(TM) system (copyright 1992, Gaussian, Inc.),
 the Gaussian 90(TM) system (copyright 1990, Gaussian, Inc.),
 the Gaussian 88(TM) system (copyright 1988, Gaussian, Inc.),
 the Gaussian 86(TM) system (copyright 1986, Carnegie Mellon
 University), and the Gaussian 82(TM) system (copyright 1983,
 Carnegie Mellon University). Gaussian is a federally registered
 trademark of Gaussian, Inc.
  
 This software contains proprietary and confidential information,
 including trade secrets, belonging to Gaussian, Inc.
  
 This software is provided under written license and may be
 used, copied, transmitted, or stored only in accord with that
 written license.
  
 The following legend is applicable only to US Government
 contracts under FAR:
  
                    RESTRICTED RIGHTS LEGEND
  
 Use, reproduction and disclosure by the US Government is
 subject to restrictions as set forth in subparagraphs (a)
 and (c) of the Commercial Computer Software - Restricted
 Rights clause in FAR 52.227-19.
  
 Gaussian, Inc.
 340 Quinnipiac St., Bldg. 40, Wallingford CT 06492
  
  
 ---------------------------------------------------------------
 Warning -- This program may not be used in any manner that
 competes with the business of Gaussian, Inc. or will provide
 assistance to any competitor of Gaussian, Inc.  The licensee
 of this program is prohibited from giving any competitor of
 Gaussian, Inc. access to this program.  By using this program,
 the user acknowledges that Gaussian, Inc. is engaged in the
 business of creating and licensing software in the field of
 computational chemistry and represents and warrants to the
 licensee that it is not a competitor of Gaussian, Inc. and that
 it will not use this program in any manner prohibited above.
 ---------------------------------------------------------------
  

 Cite this work as:
 Gaussian 16, Revision C.01,
 M. J. Frisch, G. W. Trucks, H. B. Schlegel, G. E. Scuseria, 
 M. A. Robb, J. R. Cheeseman, G. Scalmani, V. Barone, 
 G. A. Petersson, H. Nakatsuji, X. Li, M. Caricato, A. V. Marenich, 
 J. Bloino, B. G. Janesko, R. Gomperts, B. Mennucci, H. P. Hratchian, 
 J. V. Ortiz, A. F. Izmaylov, J. L. Sonnenberg, D. Williams-Young, 
 F. Ding, F. Lipparini, F. Egidi, J. Goings, B. Peng, A. Petrone, 
 T. Henderson, D. Ranasinghe, V. G. Zakrzewski, J. Gao, N. Rega, 
 G. Zheng, W. Liang, M. Hada, M. Ehara, K. Toyota, R. Fukuda, 
 J. Hasegawa, M. Ishida, T. Nakajima, Y. Honda, O. Kitao, H. Nakai, 
 T. Vreven, K. Throssell, J. A. Montgomery, Jr., J. E. Peralta, 
 F. Ogliaro, M. J. Bearpark, J. J. Heyd, E. N. Brothers, K. N. Kudin, 
 V. N. Staroverov, T. A. Keith, R. Kobayashi, J. Normand, 
 K. Raghavachari, A. P. Rendell, J. C. Burant, S. S. Iyengar, 
 J. Tomasi, M. Cossi, J. M. Millam, M. Klene, C. Adamo, R. Cammi, 
 J. W. Ochterski, R. L. Martin, K. Morokuma, O. Farkas, 
 J. B. Foresman, and D. J. Fox, Gaussian, Inc., Wallingford CT, 2019.
 
 ******************************************
 Gaussian 16:  ES64L-G16RevC.01  3-Jul-2019
                 2-Mar-2026 
 ******************************************
 %nprocshared=112
 Will use up to  112 processors via shared memory.
 %mem=10GB
 %chk=Go_6976.chk
 ----------------------------------------------------------------------
 # opt freq b3lyp/6-311++g(d,p) scrf=(pcm,solvent=water) geom=connectiv
 ity
 ----------------------------------------------------------------------
 1/18=20,19=15,26=3,38=1,57=2/1,3;
 2/9=110,12=2,17=6,18=5,40=1/2;
 3/5=4,6=6,7=1111,11=2,25=1,30=1,70=2201,71=1,72=1,74=-5/1,2,3;
 4//1;
 5/5=2,38=5,53=1/2;
 6/7=2,8=2,9=2,10=2,28=1/1;
 7//1,2,3,16;
 1/18=20,19=15,26=3/3(2);
 2/9=110/2;
 99//99;
 2/9=110/2;
 3/5=4,6=6,7=1111,11=2,25=1,30=1,70=2205,71=1,72=1,74=-5/1,2,3;
 4/5=5,16=3,69=1/1;
 5/5=2,38=5,53=1/2;
 7//1,2,3,16;
 1/18=20,19=15,26=3/3(-5);
 2/9=110/2;
 6/7=2,8=2,9=2,10=2,19=2,28=1/1;
 99/9=1/99;
 ----
 3501
 ----
 Symbolic Z-matrix:
 Charge =  0 Multiplicity = 1
 O                    -3.0082    3.34     -0.4213 
 N                     1.5543   -1.2568    0.6065 
 N                    -1.1867   -1.7532    0.4794 
 N                    -0.8209    4.19     -0.3874 
 N                     1.3486   -1.4904   -3.1418 
 C                     0.6725   -0.2537    0.3904 
 C                     1.0795    1.1075    0.2157 
 C                    -0.7009   -0.5013    0.3265 
 C                    -1.5416    0.6369    0.0935 
 C                     0.267     2.2181   -0.0113 
 C                    -1.1043    1.9516   -0.0722 
 C                     2.5135    0.8372    0.3624 
 C                     2.7534   -0.558     0.59 
 C                    -2.799    -0.1264    0.1167 
 C                     0.5236    3.6736   -0.2106 
 C                    -2.5475   -1.5218    0.3454 
 C                    -1.8048    3.2078   -0.3124 
 C                     1.5325   -2.6393    0.1674 
 C                     3.6356    1.6981    0.316 
 C                    -0.7311   -2.8424    1.3227 
 C                     4.0516   -1.0608    0.7617 
 C                    -4.15      0.267    -0.0412 
 C                    -3.5892   -2.4597    0.4113 
 C                     2.3113   -2.8798   -1.1265 
 C                     4.9252    1.1859    0.4883 
 C                     5.1275   -0.1719    0.7075 
 C                    -5.1811   -0.6764    0.0264 
 C                    -4.903    -2.0184    0.2494 
 C                     1.7723   -2.1033   -2.2524 
 H                     0.9725    4.1421    0.6685 
 H                     1.1042    3.8747   -1.114 
 H                     1.8821   -3.29      0.9732 
 H                     0.5845   -2.9216   -0.2498 
 H                    -1.0255    5.1709   -0.5498 
 H                     3.5031    2.7635    0.1464 
 H                    -1.5341   -3.0264    2.0531 
 H                    -0.6626   -3.7893    0.7802 
 H                     0.0864   -2.5719    1.99 
 H                     4.2344   -2.1109    0.9696 
 H                    -4.4087    1.3061   -0.217 
 H                    -3.3915   -3.5152    0.5739 
 H                     2.227    -3.9459   -1.3783 
 H                     3.384    -2.7005   -1.0369 
 H                     5.7778    1.8589    0.452 
 H                     6.1378   -0.5481    0.8472 
 H                    -6.2112   -0.3528   -0.0979 
 H                    -5.7179   -2.7362    0.2961 
 

 GradGradGradGradGradGradGradGradGradGradGradGradGradGradGradGradGradGrad
 Berny optimization.
 Initialization pass.
                           ----------------------------
                           !    Initial Parameters    !
                           ! (Angstroms and Degrees)  !
 --------------------------                            --------------------------
 ! Name  Definition              Value          Derivative Info.                !
 --------------------------------------------------------------------------------
 ! R1    R(1,17)                 1.2155         estimate D2E/DX2                !
 ! R2    R(2,6)                  1.353          estimate D2E/DX2                !
 ! R3    R(2,13)                 1.388          estimate D2E/DX2                !
 ! R4    R(2,18)                 1.4507         estimate D2E/DX2                !
 ! R5    R(3,8)                  1.3515         estimate D2E/DX2                !
 ! R6    R(3,16)                 1.3868         estimate D2E/DX2                !
 ! R7    R(3,20)                 1.4509         estimate D2E/DX2                !
 ! R8    R(4,15)                 1.4511         estimate D2E/DX2                !
 ! R9    R(4,17)                 1.3923         estimate D2E/DX2                !
 ! R10   R(4,34)                 1.0151         estimate D2E/DX2                !
 ! R11   R(5,29)                 1.1603         estimate D2E/DX2                !
 ! R12   R(6,7)                  1.4314         estimate D2E/DX2                !
 ! R13   R(6,8)                  1.397          estimate D2E/DX2                !
 ! R14   R(7,10)                 1.3947         estimate D2E/DX2                !
 ! R15   R(7,12)                 1.4666         estimate D2E/DX2                !
 ! R16   R(8,9)                  1.4341         estimate D2E/DX2                !
 ! R17   R(9,11)                 1.3954         estimate D2E/DX2                !
 ! R18   R(9,14)                 1.4711         estimate D2E/DX2                !
 ! R19   R(10,11)                1.3983         estimate D2E/DX2                !
 ! R20   R(10,15)                1.4913         estimate D2E/DX2                !
 ! R21   R(11,17)                1.4582         estimate D2E/DX2                !
 ! R22   R(12,13)                1.4339         estimate D2E/DX2                !
 ! R23   R(12,19)                1.4151         estimate D2E/DX2                !
 ! R24   R(13,21)                1.4027         estimate D2E/DX2                !
 ! R25   R(14,16)                1.4362         estimate D2E/DX2                !
 ! R26   R(14,22)                1.4159         estimate D2E/DX2                !
 ! R27   R(15,30)                1.0926         estimate D2E/DX2                !
 ! R28   R(15,31)                1.0926         estimate D2E/DX2                !
 ! R29   R(16,23)                1.4033         estimate D2E/DX2                !
 ! R30   R(18,24)                1.5292         estimate D2E/DX2                !
 ! R31   R(18,32)                1.0931         estimate D2E/DX2                !
 ! R32   R(18,33)                1.0735         estimate D2E/DX2                !
 ! R33   R(19,25)                1.3983         estimate D2E/DX2                !
 ! R34   R(19,35)                1.0869         estimate D2E/DX2                !
 ! R35   R(20,36)                1.101          estimate D2E/DX2                !
 ! R36   R(20,37)                1.0934         estimate D2E/DX2                !
 ! R37   R(20,38)                1.0894         estimate D2E/DX2                !
 ! R38   R(21,26)                1.3967         estimate D2E/DX2                !
 ! R39   R(21,39)                1.086          estimate D2E/DX2                !
 ! R40   R(22,27)                1.3992         estimate D2E/DX2                !
 ! R41   R(22,40)                1.0852         estimate D2E/DX2                !
 ! R42   R(23,28)                1.3954         estimate D2E/DX2                !
 ! R43   R(23,41)                1.0861         estimate D2E/DX2                !
 ! R44   R(24,29)                1.4701         estimate D2E/DX2                !
 ! R45   R(24,42)                1.0987         estimate D2E/DX2                !
 ! R46   R(24,43)                1.0913         estimate D2E/DX2                !
 ! R47   R(25,26)                1.3902         estimate D2E/DX2                !
 ! R48   R(25,44)                1.0868         estimate D2E/DX2                !
 ! R49   R(26,45)                1.0871         estimate D2E/DX2                !
 ! R50   R(27,28)                1.3885         estimate D2E/DX2                !
 ! R51   R(27,46)                1.0869         estimate D2E/DX2                !
 ! R52   R(28,47)                1.087          estimate D2E/DX2                !
 ! A1    A(6,2,13)             100.8299         estimate D2E/DX2                !
 ! A2    A(6,2,18)             130.4219         estimate D2E/DX2                !
 ! A3    A(13,2,18)            119.2867         estimate D2E/DX2                !
 ! A4    A(8,3,16)             100.7901         estimate D2E/DX2                !
 ! A5    A(8,3,20)             130.4102         estimate D2E/DX2                !
 ! A6    A(16,3,20)            119.3106         estimate D2E/DX2                !
 ! A7    A(15,4,17)            113.4012         estimate D2E/DX2                !
 ! A8    A(15,4,34)            123.3765         estimate D2E/DX2                !
 ! A9    A(17,4,34)            123.2223         estimate D2E/DX2                !
 ! A10   A(2,6,7)              122.63           estimate D2E/DX2                !
 ! A11   A(2,6,8)              121.1077         estimate D2E/DX2                !
 ! A12   A(7,6,8)              116.2623         estimate D2E/DX2                !
 ! A13   A(6,7,10)             127.6951         estimate D2E/DX2                !
 ! A14   A(6,7,12)              95.1947         estimate D2E/DX2                !
 ! A15   A(10,7,12)            137.1102         estimate D2E/DX2                !
 ! A16   A(3,8,6)              120.8217         estimate D2E/DX2                !
 ! A17   A(3,8,9)              122.8771         estimate D2E/DX2                !
 ! A18   A(6,8,9)              116.3012         estimate D2E/DX2                !
 ! A19   A(8,9,11)             125.6873         estimate D2E/DX2                !
 ! A20   A(8,9,14)              94.9735         estimate D2E/DX2                !
 ! A21   A(11,9,14)            139.3392         estimate D2E/DX2                !
 ! A22   A(7,10,11)            115.2551         estimate D2E/DX2                !
 ! A23   A(7,10,15)            134.3227         estimate D2E/DX2                !
 ! A24   A(11,10,15)           110.4221         estimate D2E/DX2                !
 ! A25   A(9,11,10)            118.799          estimate D2E/DX2                !
 ! A26   A(9,11,17)            132.8948         estimate D2E/DX2                !
 ! A27   A(10,11,17)           108.3062         estimate D2E/DX2                !
 ! A28   A(7,12,13)            111.0267         estimate D2E/DX2                !
 ! A29   A(7,12,19)            131.2945         estimate D2E/DX2                !
 ! A30   A(13,12,19)           117.6787         estimate D2E/DX2                !
 ! A31   A(2,13,12)            110.3187         estimate D2E/DX2                !
 ! A32   A(2,13,21)            128.1436         estimate D2E/DX2                !
 ! A33   A(12,13,21)           121.5377         estimate D2E/DX2                !
 ! A34   A(9,14,16)            110.9129         estimate D2E/DX2                !
 ! A35   A(9,14,22)            132.0362         estimate D2E/DX2                !
 ! A36   A(16,14,22)           117.0508         estimate D2E/DX2                !
 ! A37   A(4,15,10)            101.7817         estimate D2E/DX2                !
 ! A38   A(4,15,30)            109.0328         estimate D2E/DX2                !
 ! A39   A(4,15,31)            109.0345         estimate D2E/DX2                !
 ! A40   A(10,15,30)           112.4361         estimate D2E/DX2                !
 ! A41   A(10,15,31)           112.4317         estimate D2E/DX2                !
 ! A42   A(30,15,31)           111.5941         estimate D2E/DX2                !
 ! A43   A(3,16,14)            110.4463         estimate D2E/DX2                !
 ! A44   A(3,16,23)            127.7599         estimate D2E/DX2                !
 ! A45   A(14,16,23)           121.7938         estimate D2E/DX2                !
 ! A46   A(1,17,4)             128.1766         estimate D2E/DX2                !
 ! A47   A(1,17,11)            125.7347         estimate D2E/DX2                !
 ! A48   A(4,17,11)            106.0887         estimate D2E/DX2                !
 ! A49   A(2,18,24)            113.4731         estimate D2E/DX2                !
 ! A50   A(2,18,32)            109.837          estimate D2E/DX2                !
 ! A51   A(2,18,33)            112.4265         estimate D2E/DX2                !
 ! A52   A(24,18,32)           111.5442         estimate D2E/DX2                !
 ! A53   A(24,18,33)            94.5627         estimate D2E/DX2                !
 ! A54   A(32,18,33)           114.3532         estimate D2E/DX2                !
 ! A55   A(12,19,25)           120.2948         estimate D2E/DX2                !
 ! A56   A(12,19,35)           120.3172         estimate D2E/DX2                !
 ! A57   A(25,19,35)           119.388          estimate D2E/DX2                !
 ! A58   A(3,20,36)            106.3813         estimate D2E/DX2                !
 ! A59   A(3,20,37)            112.4206         estimate D2E/DX2                !
 ! A60   A(3,20,38)            113.9079         estimate D2E/DX2                !
 ! A61   A(36,20,37)           103.3035         estimate D2E/DX2                !
 ! A62   A(36,20,38)           100.5125         estimate D2E/DX2                !
 ! A63   A(37,20,38)           118.1592         estimate D2E/DX2                !
 ! A64   A(13,21,26)           118.6893         estimate D2E/DX2                !
 ! A65   A(13,21,39)           121.7237         estimate D2E/DX2                !
 ! A66   A(26,21,39)           119.55           estimate D2E/DX2                !
 ! A67   A(14,22,27)           120.691          estimate D2E/DX2                !
 ! A68   A(14,22,40)           120.7688         estimate D2E/DX2                !
 ! A69   A(27,22,40)           118.5402         estimate D2E/DX2                !
 ! A70   A(16,23,28)           118.8241         estimate D2E/DX2                !
 ! A71   A(16,23,41)           121.4294         estimate D2E/DX2                !
 ! A72   A(28,23,41)           119.7431         estimate D2E/DX2                !
 ! A73   A(18,24,29)           112.2237         estimate D2E/DX2                !
 ! A74   A(18,24,42)           107.9054         estimate D2E/DX2                !
 ! A75   A(18,24,43)           113.9099         estimate D2E/DX2                !
 ! A76   A(29,24,42)           107.992          estimate D2E/DX2                !
 ! A77   A(29,24,43)           109.6642         estimate D2E/DX2                !
 ! A78   A(42,24,43)           104.6951         estimate D2E/DX2                !
 ! A79   A(19,25,26)           120.7589         estimate D2E/DX2                !
 ! A80   A(19,25,44)           119.5104         estimate D2E/DX2                !
 ! A81   A(26,25,44)           119.7306         estimate D2E/DX2                !
 ! A82   A(21,26,25)           121.0406         estimate D2E/DX2                !
 ! A83   A(21,26,45)           119.386          estimate D2E/DX2                !
 ! A84   A(25,26,45)           119.5715         estimate D2E/DX2                !
 ! A85   A(22,27,28)           120.7848         estimate D2E/DX2                !
 ! A86   A(22,27,46)           119.4829         estimate D2E/DX2                !
 ! A87   A(28,27,46)           119.7323         estimate D2E/DX2                !
 ! A88   A(23,28,27)           120.8554         estimate D2E/DX2                !
 ! A89   A(23,28,47)           119.4753         estimate D2E/DX2                !
 ! A90   A(27,28,47)           119.669          estimate D2E/DX2                !
 ! A91   L(5,29,24,3,-1)       180.0895         estimate D2E/DX2                !
 ! A92   L(5,29,24,3,-2)       180.0249         estimate D2E/DX2                !
 ! D1    D(13,2,6,7)            -0.0005         estimate D2E/DX2                !
 ! D2    D(13,2,6,8)          -179.9826         estimate D2E/DX2                !
 ! D3    D(18,2,6,7)          -144.8016         estimate D2E/DX2                !
 ! D4    D(18,2,6,8)            35.2163         estimate D2E/DX2                !
 ! D5    D(6,2,13,12)            0.0018         estimate D2E/DX2                !
 ! D6    D(6,2,13,21)          179.9953         estimate D2E/DX2                !
 ! D7    D(18,2,13,12)         149.7946         estimate D2E/DX2                !
 ! D8    D(18,2,13,21)         -30.2119         estimate D2E/DX2                !
 ! D9    D(6,2,18,24)           94.5263         estimate D2E/DX2                !
 ! D10   D(6,2,18,32)         -139.8639         estimate D2E/DX2                !
 ! D11   D(6,2,18,33)          -11.3192         estimate D2E/DX2                !
 ! D12   D(13,2,18,24)         -44.9984         estimate D2E/DX2                !
 ! D13   D(13,2,18,32)          80.6113         estimate D2E/DX2                !
 ! D14   D(13,2,18,33)        -150.8439         estimate D2E/DX2                !
 ! D15   D(16,3,8,6)           179.9513         estimate D2E/DX2                !
 ! D16   D(16,3,8,9)            -0.0239         estimate D2E/DX2                !
 ! D17   D(20,3,8,6)            35.1895         estimate D2E/DX2                !
 ! D18   D(20,3,8,9)          -144.7858         estimate D2E/DX2                !
 ! D19   D(8,3,16,14)            0.0198         estimate D2E/DX2                !
 ! D20   D(8,3,16,23)         -179.9616         estimate D2E/DX2                !
 ! D21   D(20,3,16,14)         149.7666         estimate D2E/DX2                !
 ! D22   D(20,3,16,23)         -30.2148         estimate D2E/DX2                !
 ! D23   D(8,3,20,36)          115.0401         estimate D2E/DX2                !
 ! D24   D(8,3,20,37)         -132.5801         estimate D2E/DX2                !
 ! D25   D(8,3,20,38)            5.2648         estimate D2E/DX2                !
 ! D26   D(16,3,20,36)         -24.4193         estimate D2E/DX2                !
 ! D27   D(16,3,20,37)          87.9605         estimate D2E/DX2                !
 ! D28   D(16,3,20,38)        -134.1946         estimate D2E/DX2                !
 ! D29   D(17,4,15,10)           0.0188         estimate D2E/DX2                !
 ! D30   D(17,4,15,30)        -118.9521         estimate D2E/DX2                !
 ! D31   D(17,4,15,31)         118.9854         estimate D2E/DX2                !
 ! D32   D(34,4,15,10)        -179.9876         estimate D2E/DX2                !
 ! D33   D(34,4,15,30)          61.0415         estimate D2E/DX2                !
 ! D34   D(34,4,15,31)         -61.021          estimate D2E/DX2                !
 ! D35   D(15,4,17,1)         -179.9856         estimate D2E/DX2                !
 ! D36   D(15,4,17,11)          -0.0102         estimate D2E/DX2                !
 ! D37   D(34,4,17,1)            0.0208         estimate D2E/DX2                !
 ! D38   D(34,4,17,11)         179.9961         estimate D2E/DX2                !
 ! D39   D(2,6,7,10)          -179.9923         estimate D2E/DX2                !
 ! D40   D(2,6,7,12)            -0.001          estimate D2E/DX2                !
 ! D41   D(8,6,7,10)            -0.0094         estimate D2E/DX2                !
 ! D42   D(8,6,7,12)           179.9819         estimate D2E/DX2                !
 ! D43   D(2,6,8,3)              0.0045         estimate D2E/DX2                !
 ! D44   D(2,6,8,9)            179.9813         estimate D2E/DX2                !
 ! D45   D(7,6,8,3)           -179.9787         estimate D2E/DX2                !
 ! D46   D(7,6,8,9)             -0.0019         estimate D2E/DX2                !
 ! D47   D(6,7,10,11)            0.0094         estimate D2E/DX2                !
 ! D48   D(6,7,10,15)          179.9639         estimate D2E/DX2                !
 ! D49   D(12,7,10,11)        -179.9779         estimate D2E/DX2                !
 ! D50   D(12,7,10,15)          -0.0234         estimate D2E/DX2                !
 ! D51   D(6,7,12,13)            0.002          estimate D2E/DX2                !
 ! D52   D(6,7,12,19)         -179.9919         estimate D2E/DX2                !
 ! D53   D(10,7,12,13)         179.992          estimate D2E/DX2                !
 ! D54   D(10,7,12,19)          -0.0019         estimate D2E/DX2                !
 ! D55   D(3,8,9,11)           179.9895         estimate D2E/DX2                !
 ! D56   D(3,8,9,14)             0.0163         estimate D2E/DX2                !
 ! D57   D(6,8,9,11)             0.0132         estimate D2E/DX2                !
 ! D58   D(6,8,9,14)          -179.9601         estimate D2E/DX2                !
 ! D59   D(8,9,11,10)           -0.0134         estimate D2E/DX2                !
 ! D60   D(8,9,11,17)         -179.9863         estimate D2E/DX2                !
 ! D61   D(14,9,11,10)         179.9457         estimate D2E/DX2                !
 ! D62   D(14,9,11,17)          -0.0273         estimate D2E/DX2                !
 ! D63   D(8,9,14,16)           -0.0011         estimate D2E/DX2                !
 ! D64   D(8,9,14,22)          179.9943         estimate D2E/DX2                !
 ! D65   D(11,9,14,16)        -179.9677         estimate D2E/DX2                !
 ! D66   D(11,9,14,22)           0.0277         estimate D2E/DX2                !
 ! D67   D(7,10,11,9)            0.0019         estimate D2E/DX2                !
 ! D68   D(7,10,11,17)         179.9811         estimate D2E/DX2                !
 ! D69   D(15,10,11,9)        -179.9633         estimate D2E/DX2                !
 ! D70   D(15,10,11,17)          0.0158         estimate D2E/DX2                !
 ! D71   D(7,10,15,4)         -179.9767         estimate D2E/DX2                !
 ! D72   D(7,10,15,30)         -63.4553         estimate D2E/DX2                !
 ! D73   D(7,10,15,31)          63.5019         estimate D2E/DX2                !
 ! D74   D(11,10,15,4)          -0.0206         estimate D2E/DX2                !
 ! D75   D(11,10,15,30)        116.5008         estimate D2E/DX2                !
 ! D76   D(11,10,15,31)       -116.5421         estimate D2E/DX2                !
 ! D77   D(9,11,17,1)           -0.0526         estimate D2E/DX2                !
 ! D78   D(9,11,17,4)          179.9713         estimate D2E/DX2                !
 ! D79   D(10,11,17,1)         179.9723         estimate D2E/DX2                !
 ! D80   D(10,11,17,4)          -0.0038         estimate D2E/DX2                !
 ! D81   D(7,12,13,2)           -0.0027         estimate D2E/DX2                !
 ! D82   D(7,12,13,21)        -179.9967         estimate D2E/DX2                !
 ! D83   D(19,12,13,2)         179.9921         estimate D2E/DX2                !
 ! D84   D(19,12,13,21)         -0.0018         estimate D2E/DX2                !
 ! D85   D(7,12,19,25)        -179.9963         estimate D2E/DX2                !
 ! D86   D(7,12,19,35)           0.0205         estimate D2E/DX2                !
 ! D87   D(13,12,19,25)          0.0101         estimate D2E/DX2                !
 ! D88   D(13,12,19,35)       -179.9731         estimate D2E/DX2                !
 ! D89   D(2,13,21,26)        -179.9988         estimate D2E/DX2                !
 ! D90   D(2,13,21,39)          -2.222          estimate D2E/DX2                !
 ! D91   D(12,13,21,26)         -0.0059         estimate D2E/DX2                !
 ! D92   D(12,13,21,39)        177.7708         estimate D2E/DX2                !
 ! D93   D(9,14,16,3)           -0.0124         estimate D2E/DX2                !
 ! D94   D(9,14,16,23)         179.9703         estimate D2E/DX2                !
 ! D95   D(22,14,16,3)         179.9915         estimate D2E/DX2                !
 ! D96   D(22,14,16,23)         -0.0258         estimate D2E/DX2                !
 ! D97   D(9,14,22,27)        -179.965          estimate D2E/DX2                !
 ! D98   D(9,14,22,40)           0.0221         estimate D2E/DX2                !
 ! D99   D(16,14,22,27)          0.0301         estimate D2E/DX2                !
 ! D100  D(16,14,22,40)       -179.9828         estimate D2E/DX2                !
 ! D101  D(3,16,23,28)         179.9818         estimate D2E/DX2                !
 ! D102  D(3,16,23,41)          -0.6872         estimate D2E/DX2                !
 ! D103  D(14,16,23,28)          0.0023         estimate D2E/DX2                !
 ! D104  D(14,16,23,41)        179.3333         estimate D2E/DX2                !
 ! D105  D(2,18,24,29)         -60.6105         estimate D2E/DX2                !
 ! D106  D(2,18,24,42)        -179.47           estimate D2E/DX2                !
 ! D107  D(2,18,24,43)          64.7539         estimate D2E/DX2                !
 ! D108  D(32,18,24,29)        174.6955         estimate D2E/DX2                !
 ! D109  D(32,18,24,42)         55.836          estimate D2E/DX2                !
 ! D110  D(32,18,24,43)        -59.9401         estimate D2E/DX2                !
 ! D111  D(33,18,24,29)         56.2547         estimate D2E/DX2                !
 ! D112  D(33,18,24,42)        -62.6048         estimate D2E/DX2                !
 ! D113  D(33,18,24,43)       -178.3808         estimate D2E/DX2                !
 ! D114  D(12,19,25,26)         -0.0107         estimate D2E/DX2                !
 ! D115  D(12,19,25,44)       -179.893          estimate D2E/DX2                !
 ! D116  D(35,19,25,26)        179.9727         estimate D2E/DX2                !
 ! D117  D(35,19,25,44)          0.0904         estimate D2E/DX2                !
 ! D118  D(13,21,26,25)          0.0056         estimate D2E/DX2                !
 ! D119  D(13,21,26,45)        179.5019         estimate D2E/DX2                !
 ! D120  D(39,21,26,25)       -177.8206         estimate D2E/DX2                !
 ! D121  D(39,21,26,45)          1.6757         estimate D2E/DX2                !
 ! D122  D(14,22,27,28)         -0.0115         estimate D2E/DX2                !
 ! D123  D(14,22,27,46)       -179.9803         estimate D2E/DX2                !
 ! D124  D(40,22,27,28)       -179.9988         estimate D2E/DX2                !
 ! D125  D(40,22,27,46)          0.0323         estimate D2E/DX2                !
 ! D126  D(16,23,28,27)          0.0178         estimate D2E/DX2                !
 ! D127  D(16,23,28,47)        179.8535         estimate D2E/DX2                !
 ! D128  D(41,23,28,27)       -179.3247         estimate D2E/DX2                !
 ! D129  D(41,23,28,47)          0.5109         estimate D2E/DX2                !
 ! D130  D(19,25,26,21)          0.0026         estimate D2E/DX2                !
 ! D131  D(19,25,26,45)       -179.4927         estimate D2E/DX2                !
 ! D132  D(44,25,26,21)        179.8847         estimate D2E/DX2                !
 ! D133  D(44,25,26,45)          0.3893         estimate D2E/DX2                !
 ! D134  D(22,27,28,23)         -0.0135         estimate D2E/DX2                !
 ! D135  D(22,27,28,47)       -179.8488         estimate D2E/DX2                !
 ! D136  D(46,27,28,23)        179.9553         estimate D2E/DX2                !
 ! D137  D(46,27,28,47)          0.1199         estimate D2E/DX2                !
 --------------------------------------------------------------------------------
 Trust Radius=3.00D-01 FncErr=1.00D-07 GrdErr=1.00D-06 EigMax=2.50D+02 EigMin=1.00D-04
 Number of steps in this run=    282 maximum allowed number of steps=    282.
 GradGradGradGradGradGradGradGradGradGradGradGradGradGradGradGradGradGrad

                          Input orientation:                          
 ---------------------------------------------------------------------
 Center     Atomic      Atomic             Coordinates (Angstroms)
 Number     Number       Type             X           Y           Z
 ---------------------------------------------------------------------
      1          8           0       -3.008200    3.340000   -0.421300
      2          7           0        1.554300   -1.256800    0.606500
      3          7           0       -1.186700   -1.753200    0.479400
      4          7           0       -0.820900    4.190000   -0.387400
      5          7           0        1.348600   -1.490400   -3.141800
      6          6           0        0.672500   -0.253700    0.390400
      7          6           0        1.079500    1.107500    0.215700
      8          6           0       -0.700900   -0.501300    0.326500
      9          6           0       -1.541600    0.636900    0.093500
     10          6           0        0.267000    2.218100   -0.011300
     11          6           0       -1.104300    1.951600   -0.072200
     12          6           0        2.513500    0.837200    0.362400
     13          6           0        2.753400   -0.558000    0.590000
     14          6           0       -2.799000   -0.126400    0.116700
     15          6           0        0.523600    3.673600   -0.210600
     16          6           0       -2.547500   -1.521800    0.345400
     17          6           0       -1.804800    3.207800   -0.312400
     18          6           0        1.532500   -2.639300    0.167400
     19          6           0        3.635600    1.698100    0.316000
     20          6           0       -0.731100   -2.842400    1.322700
     21          6           0        4.051600   -1.060800    0.761700
     22          6           0       -4.150000    0.267000   -0.041200
     23          6           0       -3.589200   -2.459700    0.411300
     24          6           0        2.311300   -2.879800   -1.126500
     25          6           0        4.925200    1.185900    0.488300
     26          6           0        5.127500   -0.171900    0.707500
     27          6           0       -5.181100   -0.676400    0.026400
     28          6           0       -4.903000   -2.018400    0.249400
     29          6           0        1.772300   -2.103300   -2.252400
     30          1           0        0.972500    4.142100    0.668500
     31          1           0        1.104200    3.874700   -1.114000
     32          1           0        1.882100   -3.290000    0.973200
     33          1           0        0.584500   -2.921600   -0.249800
     34          1           0       -1.025500    5.170900   -0.549800
     35          1           0        3.503100    2.763500    0.146400
     36          1           0       -1.534100   -3.026400    2.053100
     37          1           0       -0.662600   -3.789300    0.780200
     38          1           0        0.086400   -2.571900    1.990000
     39          1           0        4.234400   -2.110900    0.969600
     40          1           0       -4.408700    1.306100   -0.217000
     41          1           0       -3.391500   -3.515200    0.573900
     42          1           0        2.227000   -3.945900   -1.378300
     43          1           0        3.384000   -2.700500   -1.036900
     44          1           0        5.777800    1.858900    0.452000
     45          1           0        6.137800   -0.548100    0.847200
     46          1           0       -6.211200   -0.352800   -0.097900
     47          1           0       -5.717900   -2.736200    0.296100
 ---------------------------------------------------------------------
                    Distance matrix (angstroms):
                    1          2          3          4          5
     1  O    0.000000
     2  N    6.557694   0.000000
     3  N    5.483595   2.788485   0.000000
     4  N    2.346898   6.024703   6.017207   0.000000
     5  N    7.050928   3.761201   4.428307   6.675357   0.000000
     6  C    5.207791   1.352952   2.390198   4.752019   3.803022
     7  C    4.700970   2.442964   3.659072   3.671111   4.253740
     8  C    4.542953   2.394808   1.351530   4.746825   4.148237
     9  C    3.118122   3.665224   2.446927   3.657211   4.831752
    10  C    3.486215   3.756827   4.257376   2.283280   4.972209
    11  C    2.382092   4.221684   3.746544   2.278179   5.223651
    12  C    6.112885   2.316136   4.518334   4.787660   4.365104
    13  C    7.029450   1.387961   4.118874   6.022826   4.095017
    14  C    3.514134   4.524260   2.318953   4.774757   5.448018
    15  C    3.553772   5.102827   5.731613   1.451071   5.994952
    16  C    4.943397   4.118636   1.386823   6.011888   5.228876
    17  C    1.215528   5.662207   5.061671   1.392265   6.326335
    18  C    7.531039   1.450721   2.876902   7.244697   3.507791
    19  C    6.883279   3.625967   5.932348   5.154098   5.230037
    20  C    6.815335   2.872303   1.450890   7.237897   5.107330
    21  C    8.402815   2.509783   5.291398   7.254832   4.767397
    22  C    3.300229   5.939741   3.624000   5.156810   6.552616
    23  C    5.887895   5.285893   2.505152   7.247063   6.160027
    24  C    8.214639   2.492081   4.010505   7.767819   2.630334
    25  C    8.270813   4.164579   6.781866   6.542869   5.756064
    26  C    8.932930   3.735635   6.513191   7.457107   5.552985
    27  C    4.588398   6.785204   4.161723   6.547093   7.303223
    28  C    5.722985   6.511857   3.732843   7.457432   7.131727
    29  C    7.472324   2.989548   4.042398   7.057516   1.160259
    30  H    4.204403   5.430512   6.281120   2.081707   6.810646
    31  H    4.204470   5.430930   6.281752   2.081675   5.740732
    32  H    8.355631   2.091847   3.467438   8.068943   4.522876
    33  H    7.221118   2.108393   2.243667   7.250444   3.315999
    34  H    2.701815   7.021946   7.002028   1.015086   7.531781
    35  H    6.561377   4.491361   6.519639   4.584411   5.792218
    36  H    6.987609   3.842180   2.053839   7.651217   6.136468
    37  H    7.600813   3.370219   2.123880   8.065828   4.971112
    38  H    7.095173   2.407964   2.138449   7.224854   5.394271
    39  H    9.170723   2.836241   5.454958   8.191389   5.061272
    40  H    2.477880   6.542475   4.497285   4.606324   7.037142
    41  H    6.937659   5.437129   2.823954   8.179376   6.354116
    42  H    9.022611   3.409284   4.462323   8.744395   3.148174
    43  H    8.816282   2.851813   4.907937   8.098273   3.168249
    44  H    8.952659   5.250658   7.845526   7.048508   6.614456
    45  H   10.018769   4.644208   7.432082   8.508662   6.303688
    46  H    4.899037   7.849611   5.247856   7.055223   8.228611
    47  H    6.691588   7.427642   4.640222   8.509996   7.956544
                    6          7          8          9         10
     6  C    0.000000
     7  C    1.431445   0.000000
     8  C    1.397003   2.402153   0.000000
     9  C    2.404903   2.665814   1.434073   0.000000
    10  C    2.536846   1.394675   2.906213   2.404623   0.000000
    11  C    2.869558   2.358892   2.517620   1.395394   1.398283
    12  C    2.140123   1.466608   3.482131   4.068939   2.663325
    13  C    2.112483   2.390802   3.464800   4.485680   3.774981
    14  C    3.484599   4.071249   2.141632   1.471129   3.861790
    15  C    3.975809   2.660005   4.383796   3.684980   1.491323
    16  C    3.460997   4.481648   2.109907   2.394843   4.694198
    17  C    4.314270   3.606846   3.922271   2.616019   2.315712
    18  C    2.545666   3.774394   3.095873   4.493221   5.022724
    19  C    3.548946   2.625360   4.862376   5.289523   3.424177
    20  C    3.088793   4.483908   2.544421   3.778012   5.327703
    21  C    3.493936   3.719277   4.805070   5.883244   5.066746
    22  C    4.869693   5.302840   3.552714   2.637939   4.828827
    23  C    4.798850   5.878770   3.490673   3.725935   6.077062
    24  C    3.447180   4.383765   4.103879   5.357277   5.604589
    25  C    4.490823   3.856146   5.875868   6.502059   4.797277
    26  C    4.467020   4.273761   5.850121   6.745965   5.463811
    27  C    5.880119   6.512545   4.493652   3.869783   6.169388
    28  C    5.849807   6.750014   4.468241   4.286483   6.689155
    29  C    3.408075   4.108616   3.915846   4.898354   5.095386
    30  H    4.414793   3.070061   4.947565   4.351753   2.159082
    31  H    4.415118   3.070197   4.948010   4.352202   2.158975
    32  H    3.319926   4.533870   3.855769   5.283572   5.823826
    33  H    2.745048   4.085996   2.800398   4.159456   5.155017
    34  H    5.761377   4.639853   5.748662   4.608400   3.267961
    35  H    4.144313   2.936150   5.325877   5.474872   3.285525
    36  H    3.914271   5.224564   3.170410   4.154498   5.916966
    37  H    3.799329   5.228023   3.319376   4.564586   6.130211
    38  H    2.876853   4.203852   2.770281   4.067369   5.194412
    39  H    4.058546   4.569448   5.230829   6.456015   5.953375
    40  H    5.349813   5.508812   4.160513   2.960490   4.768252
    41  H    5.214130   6.441079   4.047731   4.570870   6.826259
    42  H    4.379168   5.421664   4.831585   6.113150   6.610990
    43  H    3.921256   4.623915   4.835468   6.056202   5.912713
    44  H    5.525483   4.763871   6.896365   7.429362   5.541894
    45  H    5.492253   5.359683   6.858654   7.806758   6.546387
    46  H    6.901709   7.442118   5.528614   4.777165   6.970230
    47  H    6.856304   7.809298   5.492358   5.372181   7.775514
                   11         12         13         14         15
    11  C    0.000000
    12  C    3.810412   0.000000
    13  C    4.649565   1.433854   0.000000
    14  C    2.688080   5.404771   5.589225   0.000000
    15  C    2.373710   3.511865   4.849681   5.058339   0.000000
    16  C    3.784405   5.583806   5.393355   1.436209   6.060773
    17  C    1.458230   4.972204   5.981034   3.505631   2.376716
    18  C    5.299668   3.617518   2.449693   5.007907   6.404176
    19  C    4.762522   1.415065   2.437897   6.691233   3.723500
    20  C    5.006741   4.998906   4.230493   3.620401   6.810546
    21  C    6.029365   2.475398   1.402716   6.944051   5.983870
    22  C    3.480679   6.700019   6.981115   1.415944   5.785858
    23  C    5.086066   6.936490   6.623969   2.481027   7.410752
    24  C    6.010016   4.009214   2.921058   5.936491   6.854327
    25  C    6.103714   2.440029   2.787157   7.843691   5.104037
    26  C    6.629669   2.823185   2.408159   7.948617   6.068498
    27  C    4.851433   7.849252   7.955373   2.446437   7.177902
    28  C    5.504039   7.948062   7.801874   2.832682   7.877719
    29  C    5.428657   4.004135   3.380791   5.515211   6.253061
    30  H    3.108058   3.659336   5.026799   5.722656   1.092621
    31  H    3.108236   3.659548   5.027157   5.723495   1.092552
    32  H    6.122566   4.219659   2.893066   5.714425   7.192957
    33  H    5.160588   4.269005   3.316021   4.404037   6.595598
    34  H    3.255488   5.669002   6.956977   5.625914   2.180980
    35  H    4.683493   2.176372   3.433831   6.933172   3.135786
    36  H    5.429743   5.845420   5.159100   3.709396   7.365356
    37  H    5.820620   5.627315   4.706010   4.292001   7.621262
    38  H    5.111994   4.490196   3.623352   4.220812   6.636268
    39  H    6.789033   3.467201   2.179210   7.357608   6.973044
    40  H    3.369970   6.962214   7.444582   2.180492   5.471077
    41  H    5.961093   7.338743   6.819464   3.470454   8.223278
    42  H    6.898113   5.098055   3.953374   6.487240   7.894421
    43  H    6.535864   3.902708   2.763108   6.796048   7.035184
    44  H    6.902657   3.421630   3.873944   8.809957   5.598106
    45  H    7.716334   3.910197   3.394173   8.976517   7.103586
    46  H    5.602798   8.817503   8.993296   3.426429   7.847428
    47  H    6.587596   8.973825   8.751792   3.919594   8.960949
                   16         17         18         19         20
    16  C    0.000000
    17  C    4.832538   0.000000
    18  C    4.234016   6.749545   0.000000
    19  C    6.971323   5.680848   4.822670   0.000000
    20  C    2.449165   6.358561   2.549481   6.379471   0.000000
    21  C    6.628269   7.326122   3.031620   2.825462   5.134495
    22  C    2.432544   3.771182   6.385992   7.924090   4.818451
    23  C    1.403260   5.985681   5.130649   8.336313   3.024210
    24  C    5.255339   7.393505   1.529231   4.979131   3.905916
    25  C    7.949422   7.072630   5.123041   1.398250   6.994080
    26  C    7.801216   7.779418   4.393609   2.424033   6.467862
    27  C    2.784297   5.157635   6.996091   9.135443   5.116097
    28  C    2.409192   6.101445   6.465903   9.312599   4.385852
    29  C    5.074188   6.690817   2.490027   4.951687   4.426581
    30  H    6.676418   3.090061   6.822909   3.631734   7.218966
    31  H    6.677348   3.090243   6.652640   3.631869   7.377348
    32  H    4.810615   7.580726   1.093135   5.328022   2.674193
    33  H    3.481828   6.578922   1.073524   5.565157   2.051788
    34  H    6.921712   2.125424   8.249664   5.876717   8.234434
    35  H    7.417086   5.346186   5.750996   1.086921   7.123078
    36  H    2.491393   6.673389   3.620738   7.215554   1.100976
    37  H    2.980513   7.173410   2.552741   6.985812   1.093443
    38  H    3.277934   6.502508   2.327578   5.799310   1.089388
    39  H    6.835995   8.148867   2.867577   3.910784   5.031497
    40  H    3.431818   3.225811   7.142255   8.071463   5.753735
    41  H    2.176739   6.964329   5.017790   8.753579   2.844484
    42  H    5.625234   8.280518   2.139795   6.058840   4.154933
    43  H    6.203449   7.896617   2.209556   4.608831   4.745724
    44  H    8.986162   7.739487   6.191718   2.152527   8.076269
    45  H    8.754104   8.862074   5.103336   3.404202   7.257527
    46  H    3.871146   5.669237   8.078574  10.066627   6.184473
    47  H    3.395384   7.142392   7.252190  10.351395   5.092481
                   21         22         23         24         25
    21  C    0.000000
    22  C    8.347092   0.000000
    23  C    7.775701   2.820310   0.000000
    24  C    3.146856   7.268330   6.112055   0.000000
    25  C    2.426023   9.136958   9.262361   5.096074   0.000000
    26  C    1.396654   9.318004   9.016797   4.315931   1.390178
    27  C    9.269907   1.399193   2.421250   7.894315  10.286827
    28  C    9.020217   2.423739   1.395359   7.394676  10.340122
    29  C    3.920053   6.751397   5.997333   1.470076   5.317053
    30  H    6.046463   6.462204   8.028638   7.370311   4.939173
    31  H    6.046865   6.463205   8.029892   6.861524   4.939337
    32  H    3.117819   7.075838   5.562396   2.182021   5.434084
    33  H    4.062818   5.711933   4.250903   1.937057   6.021464
    34  H    8.144388   5.836901   8.106931   8.733876   7.236623
    35  H    3.912124   8.052183   8.812077   5.906564   2.151299
    36  H    6.060639   4.698458   2.690742   4.991838   7.868585
    37  H    5.446902   5.412045   3.235570   3.647845   7.487411
    38  H    4.417573   5.489282   4.001864   3.841556   6.307943
    39  H    1.085978   8.773499   7.851247   2.946720   3.402608
    40  H    8.839499   1.085154   3.904816   7.969150   9.361281
    41  H    7.839585   3.906240   1.086096   5.984732   9.553804
    42  H    4.028966   7.759026   6.264155   1.098671   6.090965
    43  H    2.523741   8.158347   7.126064   1.091266   4.450353
    44  H    3.405926  10.066708  10.314681   6.079767   1.086818
    45  H    2.149977  10.358208   9.922638   4.896368   2.146151
    46  H   10.323044   2.153117   3.401940   8.948562  11.257470
    47  H    9.923048   3.404599   2.149671   8.155517  11.344399
                   26         27         28         29         30
    26  C    0.000000
    27  C   10.343387   0.000000
    28  C   10.209327   1.388536   0.000000
    29  C    4.873262   7.455115   7.129224   0.000000
    30  H    5.989670   7.842004   8.523433   6.940919   0.000000
    31  H    5.989973   7.843342   8.524901   6.121993   1.807250
    32  H    4.508411   7.590529   6.941069   3.438722   7.493752
    33  H    5.395936   6.193493   5.583693   2.467973   7.133700
    34  H    8.245346   7.196661   8.207299   7.977501   2.556304
    35  H    3.401482   9.341448   9.671592   5.695231   2.928662
    36  H    7.371277   4.788593   3.952073   5.506517   7.719297
    37  H    6.827600   5.538520   4.625887   4.238867   8.098959
    38  H    5.728656   5.932554   5.313206   4.589096   6.899952
    39  H    2.150824   9.570740   9.166205   4.055031   7.059084
    40  H    9.694240   2.141530   3.393252   7.346538   6.146895
    41  H    9.152533   3.400178   2.151823   6.053616   8.814062
    42  H    5.196781   8.218440   7.563172   2.089492   8.436759
    43  H    3.532215   8.865017   8.413929   2.105152   7.452845
    44  H    2.147631  11.256392  11.364594   6.249547   5.324545
    45  H    1.087083  11.349347  11.154300   5.575281   6.979272
    46  H   11.368708   1.086864   2.146212   8.452360   8.508645
    47  H   11.152022   2.145616   1.086959   7.937160   9.602663
                   31         32         33         34         35
    31  H    0.000000
    32  H    7.502963   0.000000
    33  H    6.870708   1.820773   0.000000
    34  H    2.556184   9.075268   8.256552   0.000000
    35  H    2.928838   6.321084   6.402778   5.175760   0.000000
    36  H    8.038428   3.592505   3.130942   8.615654   7.907707
    37  H    8.089899   2.600394   1.835500   9.065637   7.790632
    38  H    7.226990   2.184969   2.321012   8.224224   6.598424
    39  H    7.068730   2.631274   3.932676   9.110419   4.997223
    40  H    6.147714   7.881299   6.542673   5.147181   8.053115
    41  H    8.813112   5.293488   4.103586   9.072430   9.334899
    42  H    7.905208   2.465505   2.240649   9.714999   6.997799
    43  H    6.959647   2.577541   2.916438   9.035480   5.591930
    44  H    5.325255   6.477600   7.093382   7.632682   2.466972
    45  H    6.981733   5.064077   6.138082   9.272078   4.289459
    46  H    8.509953   8.676169   7.266591   7.589925  10.204834
    47  H    9.603824   7.650174   6.328714   9.233439  10.737595
                   36         37         38         39         40
    36  H    0.000000
    37  H    1.720989   0.000000
    38  H    1.684213   1.872613   0.000000
    39  H    5.940346   5.180107   4.296468   0.000000
    40  H    5.673380   6.402404   6.333692   9.369476   0.000000
    41  H    2.424230   2.750379   3.871814   7.764212   4.990506
    42  H    5.173573   3.610185   4.220840   3.592981   8.541934
    43  H    5.817389   4.567528   4.478038   2.257621   8.800639
    44  H    8.938320   8.572551   7.374921   4.290607  10.223401
    45  H    8.151945   7.533612   6.482376   2.465818  10.761006
    46  H    5.800879   6.585405   6.995963  10.646174   2.452578
    47  H    4.547026   5.186466   6.048652   9.994642   4.279891
                   41         42         43         44         45
    41  H    0.000000
    42  H    5.963567   0.000000
    43  H    7.011834   1.733847   0.000000
    44  H   10.628823   7.046551   5.360525   0.000000
    45  H    9.984284   5.638462   3.970651   2.465650   0.000000
    46  H    4.289848   9.260292   9.922766  12.203693  12.386652
    47  H    2.469038   8.209045   9.199062  12.381049  12.068518
                   46         47
    46  H    0.000000
    47  H    2.465599   0.000000
 Stoichiometry    C24H18N4O
 Framework group  C1[X(C24H18N4O)]
 Deg. of freedom   135
 Full point group                 C1      NOp   1
 Largest Abelian subgroup         C1      NOp   1
 Largest concise Abelian subgroup C1      NOp   1
                         Standard orientation:                         
 ---------------------------------------------------------------------
 Center     Atomic      Atomic             Coordinates (Angstroms)
 Number     Number       Type             X           Y           Z
 ---------------------------------------------------------------------
      1          8           0        3.062295    3.339435    0.346790
      2          7           0       -1.561752   -1.219890   -0.566495
      3          7           0        1.172508   -1.749492   -0.428670
      4          7           0        0.886464    4.217399    0.293253
      5          7           0       -1.356141   -1.364849    3.186283
      6          6           0       -0.666518   -0.223652   -0.375327
      7          6           0       -1.055241    1.146696   -0.233645
      8          6           0        0.703520   -0.487883   -0.306080
      9          6           0        1.559468    0.644362   -0.101288
     10          6           0       -0.227863    2.251581   -0.034165
     11          6           0        1.139821    1.968412    0.032544
     12          6           0       -2.492827    0.892017   -0.373019
     13          6           0       -2.751441   -0.504995   -0.566443
     14          6           0        2.806589   -0.135948   -0.106495
     15          6           0       -0.464926    3.714790    0.129740
     16          6           0        2.536372   -1.533032   -0.301008
     17          6           0        1.857156    3.220653    0.241727
     18          6           0       -1.557980   -2.591454   -0.093854
     19          6           0       -3.603343    1.768652   -0.347063
     20          6           0        0.701783   -2.852746   -1.244962
     21          6           0       -4.056350   -0.994502   -0.725212
     22          6           0        4.162827    0.243162    0.041117
     23          6           0        3.565456   -2.486043   -0.344544
     24          6           0       -2.338861   -2.789981    1.205900
     25          6           0       -4.899778    1.269621   -0.506206
     26          6           0       -5.120291   -0.090302   -0.692162
     27          6           0        5.181237   -0.715247   -0.003979
     28          6           0        4.885138   -2.058459   -0.194082
     29          6           0       -1.788673   -1.993534    2.312285
     30          1           0       -0.908269    4.167675   -0.760296
     31          1           0       -1.042069    3.945544    1.028254
     32          1           0       -1.916853   -3.256874   -0.883391
     33          1           0       -0.613480   -2.876104    0.329640
     34          1           0        1.104219    5.199153    0.431607
     35          1           0       -3.456552    2.836009   -0.203534
     36          1           0        1.501674   -3.065153   -1.971052
     37          1           0        0.621138   -3.785156   -0.679520
     38          1           0       -0.112588   -2.587719   -1.918257
     39          1           0       -4.253264   -2.046827   -0.907377
     40          1           0        4.435463    1.282699    0.191423
     41          1           0        3.353608   -3.542464   -0.481284
     42          1           0       -2.268540   -3.850660    1.483558
     43          1           0       -3.409154   -2.598652    1.112479
     44          1           0       -5.743325    1.954595   -0.485900
     45          1           0       -6.135617   -0.456310   -0.822165
     46          1           0        6.215649   -0.402457    0.111900
     47          1           0        5.690384   -2.787968   -0.223675
 ---------------------------------------------------------------------
 Rotational constants (GHZ):           0.2567110           0.1538401           0.1085324
 Standard basis: 6-311++G(d,p) (5D, 7F)
 There are   793 symmetry adapted cartesian basis functions of A   symmetry.
 There are   764 symmetry adapted basis functions of A   symmetry.
   764 basis functions,  1206 primitive gaussians,   793 cartesian basis functions
    99 alpha electrons       99 beta electrons
       nuclear repulsion energy      2665.9077573689 Hartrees.
 NAtoms=   47 NActive=   47 NUniq=   47 SFac= 1.00D+00 NAtFMM=   60 NAOKFM=F Big=F
 Integral buffers will be    131072 words long.
 Raffenetti 2 integral format.
 Two-electron integral symmetry is turned on.
 ------------------------------------------------------------------------------
 Polarizable Continuum Model (PCM)
 =================================
 Model                : PCM.
 Atomic radii         : UFF (Universal Force Field).
 Polarization charges : Total charges.
 Charge compensation  : None.
 Solution method      : On-the-fly selection.
 Cavity type          : Scaled VdW (van der Waals Surface) (Alpha=1.100).
 Cavity algorithm     : GePol (No added spheres)
                        Default sphere list used, NSphG=   47.
                        Lebedev-Laikov grids with approx.  5.0 points / Ang**2.
                        Smoothing algorithm: York/Karplus (Gamma=1.0000).
                        Polarization charges: spherical gaussians, with
                                              point-specific exponents (IZeta= 3).
                        Self-potential: point-specific (ISelfS= 7).
                        Self-field    : sphere-specific E.n sum rule (ISelfD= 2).
 1st derivatives      : Analytical E(r).r(x)/FMM algorithm (CHGder, D1EAlg=3).
                        Cavity 1st derivative terms included.
 Solvent              : Water, Eps=  78.355300 Eps(inf)=   1.777849
 ------------------------------------------------------------------------------
 One-electron integrals computed using PRISM.
 NBasis=   764 RedAO= T EigKep=  1.01D-06  NBF=   764
 NBsUse=   751 1.00D-06 EigRej=  5.61D-07 NBFU=   751
 ExpMin= 3.60D-02 ExpMax= 8.59D+03 ExpMxC= 1.30D+03 IAcc=3 IRadAn=         5 AccDes= 0.00D+00
 Harris functional with IExCor=  402 and IRadAn=       5 diagonalized for initial guess.
 HarFok:  IExCor=  402 AccDes= 0.00D+00 IRadAn=         5 IDoV= 1 UseB2=F ITyADJ=14
 ICtDFT=  3500011 ScaDFX=  1.000000  1.000000  1.000000  1.000000
 FoFCou: FMM=F IPFlag=           0 FMFlag=      100000 FMFlg1=           0
         NFxFlg=           0 DoJE=T BraDBF=F KetDBF=T FulRan=T
         wScrn=  0.000000 ICntrl=       500 IOpCl=  0 I1Cent=   200000004 NGrid=           0
         NMat0=    1 NMatS0=      1 NMatT0=    0 NMatD0=    1 NMtDS0=    0 NMtDT0=    0
 Petite list used in FoFCou.
 Requested convergence on RMS density matrix=1.00D-08 within 128 cycles.
 Requested convergence on MAX density matrix=1.00D-06.
 Requested convergence on             energy=1.00D-06.
 No special actions if energy rises.
 Inv3:  Mode=1 IEnd=    33989868.
 Iteration    1 A*A^-1 deviation from unit magnitude is 7.99D-15 for   3348.
 Iteration    1 A*A^-1 deviation from orthogonality  is 2.89D-15 for   3295    280.
 Iteration    1 A^-1*A deviation from unit magnitude is 8.22D-15 for   3348.
 Iteration    1 A^-1*A deviation from orthogonality  is 2.48D-15 for   3359   3348.
 Error on total polarization charges =  0.02212
 SCF Done:  E(RB3LYP) =  -1219.90305490     A.U. after   15 cycles
            NFock= 15  Conv=0.81D-08     -V/T= 2.0040

 **********************************************************************

            Population analysis using the SCF Density.

 **********************************************************************

 Orbital symmetries:
       Occupied  (A) (A) (A) (A) (A) (A) (A) (A) (A) (A) (A) (A)
                 (A) (A) (A) (A) (A) (A) (A) (A) (A) (A) (A) (A)
                 (A) (A) (A) (A) (A) (A) (A) (A) (A) (A) (A) (A)
                 (A) (A) (A) (A) (A) (A) (A) (A) (A) (A) (A) (A)
                 (A) (A) (A) (A) (A) (A) (A) (A) (A) (A) (A) (A)
                 (A) (A) (A) (A) (A) (A) (A) (A) (A) (A) (A) (A)
                 (A) (A) (A) (A) (A) (A) (A) (A) (A) (A) (A) (A)
                 (A) (A) (A) (A) (A) (A) (A) (A) (A) (A) (A) (A)
                 (A) (A) (A)
       Virtual   (A) (A) (A) (A) (A) (A) (A) (A) (A) (A) (A) (A)
                 (A) (A) (A) (A) (A) (A) (A) (A) (A) (A) (A) (A)
                 (A) (A) (A) (A) (A) (A) (A) (A) (A) (A) (A) (A)
                 (A) (A) (A) (A) (A) (A) (A) (A) (A) (A) (A) (A)
                 (A) (A) (A) (A) (A) (A) (A) (A) (A) (A) (A) (A)
                 (A) (A) (A) (A) (A) (A) (A) (A) (A) (A) (A) (A)
                 (A) (A) (A) (A) (A) (A) (A) (A) (A) (A) (A) (A)
                 (A) (A) (A) (A) (A) (A) (A) (A) (A) (A) (A) (A)
                 (A) (A) (A) (A) (A) (A) (A) (A) (A) (A) (A) (A)
                 (A) (A) (A) (A) (A) (A) (A) (A) (A) (A) (A) (A)
                 (A) (A) (A) (A) (A) (A) (A) (A) (A) (A) (A) (A)
                 (A) (A) (A) (A) (A) (A) (A) (A) (A) (A) (A) (A)
                 (A) (A) (A) (A) (A) (A) (A) (A) (A) (A) (A) (A)
                 (A) (A) (A) (A) (A) (A) (A) (A) (A) (A) (A) (A)
                 (A) (A) (A) (A) (A) (A) (A) (A) (A) (A) (A) (A)
                 (A) (A) (A) (A) (A) (A) (A) (A) (A) (A) (A) (A)
                 (A) (A) (A) (A) (A) (A) (A) (A) (A) (A) (A) (A)
                 (A) (A) (A) (A) (A) (A) (A) (A) (A) (A) (A) (A)
                 (A) (A) (A) (A) (A) (A) (A) (A) (A) (A) (A) (A)
                 (A) (A) (A) (A) (A) (A) (A) (A) (A) (A) (A) (A)
                 (A) (A) (A) (A) (A) (A) (A) (A) (A) (A) (A) (A)
                 (A) (A) (A) (A) (A) (A) (A) (A) (A) (A) (A) (A)
                 (A) (A) (A) (A) (A) (A) (A) (A) (A) (A) (A) (A)
                 (A) (A) (A) (A) (A) (A) (A) (A) (A) (A) (A) (A)
                 (A) (A) (A) (A) (A) (A) (A) (A) (A) (A) (A) (A)
                 (A) (A) (A) (A) (A) (A) (A) (A) (A) (A) (A) (A)
                 (A) (A) (A) (A) (A) (A) (A) (A) (A) (A) (A) (A)
                 (A) (A) (A) (A) (A) (A) (A) (A) (A) (A) (A) (A)
                 (A) (A) (A) (A) (A) (A) (A) (A) (A) (A) (A) (A)
                 (A) (A) (A) (A) (A) (A) (A) (A) (A) (A) (A) (A)
                 (A) (A) (A) (A) (A) (A) (A) (A) (A) (A) (A) (A)
                 (A) (A) (A) (A) (A) (A) (A) (A) (A) (A) (A) (A)
                 (A) (A) (A) (A) (A) (A) (A) (A) (A) (A) (A) (A)
                 (A) (A) (A) (A) (A) (A) (A) (A) (A) (A) (A) (A)
                 (A) (A) (A) (A) (A) (A) (A) (A) (A) (A) (A) (A)
                 (A) (A) (A) (A) (A) (A) (A) (A) (A) (A) (A) (A)
                 (A) (A) (A) (A) (A) (A) (A) (A) (A) (A) (A) (A)
                 (A) (A) (A) (A) (A) (A) (A) (A) (A) (A) (A) (A)
                 (A) (A) (A) (A) (A) (A) (A) (A) (A) (A) (A) (A)
                 (A) (A) (A) (A) (A) (A) (A) (A) (A) (A) (A) (A)
                 (A) (A) (A) (A) (A) (A) (A) (A) (A) (A) (A) (A)
                 (A) (A) (A) (A) (A) (A) (A) (A) (A) (A) (A) (A)
                 (A) (A) (A) (A) (A) (A) (A) (A) (A) (A) (A) (A)
                 (A) (A) (A) (A) (A) (A) (A) (A) (A) (A) (A) (A)
                 (A) (A) (A) (A) (A) (A) (A) (A) (A) (A) (A) (A)
                 (A) (A) (A) (A) (A) (A) (A) (A) (A) (A) (A) (A)
                 (A) (A) (A) (A) (A) (A) (A) (A) (A) (A) (A) (A)
                 (A) (A) (A) (A) (A) (A) (A) (A) (A) (A) (A) (A)
                 (A) (A) (A) (A) (A) (A) (A) (A) (A) (A) (A) (A)
                 (A) (A) (A) (A) (A) (A) (A) (A) (A) (A) (A) (A)
                 (A) (A) (A) (A) (A) (A) (A) (A) (A) (A) (A) (A)
                 (A) (A) (A) (A) (A) (A) (A) (A) (A) (A) (A) (A)
                 (A) (A) (A) (A) (A) (A) (A) (A) (A) (A) (A) (A)
                 (A) (A) (A) (A) (A) (A) (A) (A) (A) (A) (A) (A)
                 (A) (A) (A) (A)
 The electronic state is 1-A.
 Alpha  occ. eigenvalues --  -19.10003 -14.37713 -14.37102 -14.34417 -14.33209
 Alpha  occ. eigenvalues --  -10.28330 -10.23969 -10.23404 -10.22735 -10.22707
 Alpha  occ. eigenvalues --  -10.22654 -10.22302 -10.22268 -10.21883 -10.21761
 Alpha  occ. eigenvalues --  -10.20356 -10.20019 -10.19883 -10.19490 -10.19285
 Alpha  occ. eigenvalues --  -10.19116 -10.18635 -10.18409 -10.18153 -10.18141
 Alpha  occ. eigenvalues --  -10.17802 -10.17704 -10.17698 -10.17210  -1.05243
 Alpha  occ. eigenvalues --   -1.03410  -1.00836  -0.95551  -0.92968  -0.87869
 Alpha  occ. eigenvalues --   -0.85912  -0.85559  -0.83223  -0.80944  -0.78449
 Alpha  occ. eigenvalues --   -0.77355  -0.75174  -0.74904  -0.73972  -0.71942
 Alpha  occ. eigenvalues --   -0.70791  -0.69374  -0.65959  -0.64187  -0.62211
 Alpha  occ. eigenvalues --   -0.60629  -0.60317  -0.57732  -0.57290  -0.55073
 Alpha  occ. eigenvalues --   -0.54845  -0.53306  -0.52484  -0.52198  -0.50356
 Alpha  occ. eigenvalues --   -0.49849  -0.49001  -0.48811  -0.48485  -0.48080
 Alpha  occ. eigenvalues --   -0.47022  -0.46510  -0.45247  -0.44741  -0.44473
 Alpha  occ. eigenvalues --   -0.44183  -0.43992  -0.42826  -0.42437  -0.41907
 Alpha  occ. eigenvalues --   -0.41453  -0.40904  -0.40883  -0.40393  -0.38983
 Alpha  occ. eigenvalues --   -0.37688  -0.37424  -0.36422  -0.35970  -0.35851
 Alpha  occ. eigenvalues --   -0.35225  -0.35150  -0.34778  -0.34611  -0.33569
 Alpha  occ. eigenvalues --   -0.33294  -0.29923  -0.27187  -0.27110  -0.26788
 Alpha  occ. eigenvalues --   -0.26147  -0.24129  -0.21631  -0.21206
 Alpha virt. eigenvalues --   -0.05698  -0.04501  -0.01790  -0.01678  -0.00993
 Alpha virt. eigenvalues --   -0.00587  -0.00264   0.00112   0.00589   0.00829
 Alpha virt. eigenvalues --    0.00915   0.01164   0.01495   0.01799   0.01932
 Alpha virt. eigenvalues --    0.02629   0.02786   0.03178   0.03352   0.03913
 Alpha virt. eigenvalues --    0.04164   0.04547   0.04764   0.05068   0.05361
 Alpha virt. eigenvalues --    0.05843   0.06126   0.06414   0.06746   0.07155
 Alpha virt. eigenvalues --    0.07634   0.08051   0.08270   0.08740   0.08804
 Alpha virt. eigenvalues --    0.09022   0.09432   0.09823   0.10153   0.10179
 Alpha virt. eigenvalues --    0.10590   0.10706   0.10874   0.11133   0.11243
 Alpha virt. eigenvalues --    0.11455   0.11641   0.11916   0.12075   0.12222
 Alpha virt. eigenvalues --    0.12344   0.12562   0.12829   0.12980   0.13052
 Alpha virt. eigenvalues --    0.13299   0.13385   0.13525   0.13889   0.14022
 Alpha virt. eigenvalues --    0.14264   0.14495   0.14542   0.14793   0.15092
 Alpha virt. eigenvalues --    0.15240   0.15411   0.15680   0.15954   0.16172
 Alpha virt. eigenvalues --    0.16387   0.16654   0.17041   0.17334   0.17488
 Alpha virt. eigenvalues --    0.17919   0.18029   0.18215   0.18474   0.18874
 Alpha virt. eigenvalues --    0.19028   0.19243   0.19317   0.19599   0.19887
 Alpha virt. eigenvalues --    0.20036   0.20176   0.20384   0.20539   0.20833
 Alpha virt. eigenvalues --    0.21361   0.21600   0.21750   0.21955   0.22425
 Alpha virt. eigenvalues --    0.22553   0.22690   0.22967   0.23245   0.23624
 Alpha virt. eigenvalues --    0.23722   0.24050   0.24504   0.24610   0.24909
 Alpha virt. eigenvalues --    0.25033   0.25340   0.25443   0.25663   0.25745
 Alpha virt. eigenvalues --    0.26085   0.26503   0.26810   0.27198   0.27364
 Alpha virt. eigenvalues --    0.27509   0.27730   0.27881   0.27999   0.28334
 Alpha virt. eigenvalues --    0.28660   0.28790   0.29097   0.29351   0.29436
 Alpha virt. eigenvalues --    0.29548   0.29801   0.30105   0.30385   0.30521
 Alpha virt. eigenvalues --    0.30822   0.31205   0.31411   0.31447   0.31898
 Alpha virt. eigenvalues --    0.32088   0.32154   0.32453   0.32870   0.33204
 Alpha virt. eigenvalues --    0.33578   0.33693   0.34134   0.34389   0.34597
 Alpha virt. eigenvalues --    0.34986   0.35257   0.35460   0.35672   0.35921
 Alpha virt. eigenvalues --    0.36244   0.36481   0.36746   0.37063   0.37780
 Alpha virt. eigenvalues --    0.38348   0.38473   0.38506   0.39330   0.39494
 Alpha virt. eigenvalues --    0.39949   0.40257   0.40636   0.40732   0.41505
 Alpha virt. eigenvalues --    0.42082   0.42282   0.43288   0.43679   0.44814
 Alpha virt. eigenvalues --    0.45340   0.46273   0.46412   0.47284   0.47374
 Alpha virt. eigenvalues --    0.48095   0.48942   0.49788   0.50511   0.51643
 Alpha virt. eigenvalues --    0.52490   0.53105   0.53892   0.54256   0.54470
 Alpha virt. eigenvalues --    0.55266   0.55880   0.55951   0.56582   0.56822
 Alpha virt. eigenvalues --    0.57041   0.57622   0.57962   0.58573   0.59364
 Alpha virt. eigenvalues --    0.59477   0.60013   0.60243   0.60910   0.61162
 Alpha virt. eigenvalues --    0.61697   0.61966   0.62459   0.62977   0.63130
 Alpha virt. eigenvalues --    0.63608   0.64280   0.64467   0.64931   0.65079
 Alpha virt. eigenvalues --    0.65683   0.66397   0.66871   0.67034   0.67279
 Alpha virt. eigenvalues --    0.68160   0.68324   0.68917   0.68969   0.69052
 Alpha virt. eigenvalues --    0.69552   0.69899   0.70983   0.71517   0.71630
 Alpha virt. eigenvalues --    0.71842   0.72361   0.72764   0.72922   0.73052
 Alpha virt. eigenvalues --    0.73998   0.74119   0.74621   0.74809   0.75062
 Alpha virt. eigenvalues --    0.75661   0.76381   0.76664   0.77234   0.77698
 Alpha virt. eigenvalues --    0.78119   0.78357   0.78650   0.78909   0.79283
 Alpha virt. eigenvalues --    0.79836   0.80673   0.80791   0.81802   0.82280
 Alpha virt. eigenvalues --    0.83072   0.84007   0.85165   0.85275   0.85909
 Alpha virt. eigenvalues --    0.86087   0.86921   0.87479   0.87755   0.87928
 Alpha virt. eigenvalues --    0.88263   0.88564   0.89330   0.90130   0.90528
 Alpha virt. eigenvalues --    0.90939   0.91588   0.92112   0.92481   0.93591
 Alpha virt. eigenvalues --    0.93839   0.94263   0.94601   0.94826   0.95518
 Alpha virt. eigenvalues --    0.96297   0.97197   0.97450   0.98023   0.98125
 Alpha virt. eigenvalues --    0.98692   0.99410   1.00250   1.00592   1.00944
 Alpha virt. eigenvalues --    1.01658   1.02406   1.02944   1.03605   1.03806
 Alpha virt. eigenvalues --    1.04164   1.04851   1.05115   1.05776   1.05982
 Alpha virt. eigenvalues --    1.06530   1.06866   1.08206   1.08271   1.08490
 Alpha virt. eigenvalues --    1.08933   1.09882   1.10607   1.11126   1.12140
 Alpha virt. eigenvalues --    1.12521   1.13215   1.13977   1.14168   1.15053
 Alpha virt. eigenvalues --    1.15448   1.16398   1.16965   1.17685   1.17834
 Alpha virt. eigenvalues --    1.19148   1.21013   1.22881   1.23895   1.26190
 Alpha virt. eigenvalues --    1.26608   1.27030   1.27227   1.27653   1.30820
 Alpha virt. eigenvalues --    1.31676   1.31973   1.32383   1.33230   1.33787
 Alpha virt. eigenvalues --    1.34424   1.36011   1.37695   1.38392   1.40180
 Alpha virt. eigenvalues --    1.41040   1.41991   1.43014   1.44192   1.44656
 Alpha virt. eigenvalues --    1.44953   1.45931   1.47930   1.48988   1.49509
 Alpha virt. eigenvalues --    1.50048   1.50583   1.51066   1.51170   1.51932
 Alpha virt. eigenvalues --    1.52455   1.53390   1.53635   1.54709   1.55133
 Alpha virt. eigenvalues --    1.55301   1.55935   1.56865   1.57107   1.57292
 Alpha virt. eigenvalues --    1.58002   1.58432   1.58826   1.59917   1.60852
 Alpha virt. eigenvalues --    1.61547   1.62320   1.63474   1.64064   1.64772
 Alpha virt. eigenvalues --    1.66439   1.67343   1.67791   1.68933   1.69135
 Alpha virt. eigenvalues --    1.69718   1.70415   1.71585   1.72043   1.72211
 Alpha virt. eigenvalues --    1.73210   1.73788   1.74019   1.74391   1.74881
 Alpha virt. eigenvalues --    1.75473   1.75777   1.76018   1.76892   1.77815
 Alpha virt. eigenvalues --    1.78019   1.79733   1.80026   1.80504   1.81914
 Alpha virt. eigenvalues --    1.82381   1.82644   1.83665   1.84748   1.85096
 Alpha virt. eigenvalues --    1.86190   1.87012   1.87392   1.88801   1.89532
 Alpha virt. eigenvalues --    1.90048   1.90649   1.91250   1.91893   1.92121
 Alpha virt. eigenvalues --    1.92760   1.93491   1.94399   1.95025   1.95255
 Alpha virt. eigenvalues --    1.96133   1.97007   1.97201   1.97468   1.98226
 Alpha virt. eigenvalues --    1.98767   1.98929   1.99472   2.01324   2.01718
 Alpha virt. eigenvalues --    2.02370   2.03190   2.04087   2.04907   2.06130
 Alpha virt. eigenvalues --    2.07396   2.08474   2.08584   2.08857   2.09742
 Alpha virt. eigenvalues --    2.11161   2.11865   2.12135   2.13277   2.13723
 Alpha virt. eigenvalues --    2.15125   2.15807   2.16864   2.17907   2.19470
 Alpha virt. eigenvalues --    2.20488   2.21884   2.23126   2.24414   2.25608
 Alpha virt. eigenvalues --    2.26730   2.27496   2.28318   2.28584   2.30729
 Alpha virt. eigenvalues --    2.32814   2.34203   2.34658   2.34763   2.35362
 Alpha virt. eigenvalues --    2.37426   2.38271   2.40745   2.41144   2.44826
 Alpha virt. eigenvalues --    2.45755   2.46770   2.47242   2.48726   2.49701
 Alpha virt. eigenvalues --    2.50136   2.50944   2.52270   2.53544   2.53752
 Alpha virt. eigenvalues --    2.55964   2.56769   2.57168   2.57689   2.58979
 Alpha virt. eigenvalues --    2.59387   2.60684   2.61487   2.61696   2.62345
 Alpha virt. eigenvalues --    2.63005   2.64520   2.65734   2.66302   2.67283
 Alpha virt. eigenvalues --    2.68190   2.69659   2.69882   2.71009   2.71359
 Alpha virt. eigenvalues --    2.71928   2.72949   2.73255   2.74110   2.74737
 Alpha virt. eigenvalues --    2.75305   2.76128   2.76531   2.77557   2.77944
 Alpha virt. eigenvalues --    2.78765   2.79274   2.79702   2.81310   2.81554
 Alpha virt. eigenvalues --    2.82844   2.83299   2.83547   2.83724   2.84239
 Alpha virt. eigenvalues --    2.84669   2.85077   2.86660   2.86891   2.88086
 Alpha virt. eigenvalues --    2.88502   2.88861   2.89692   2.90014   2.90462
 Alpha virt. eigenvalues --    2.90629   2.91628   2.93691   2.93921   2.94602
 Alpha virt. eigenvalues --    2.95161   2.96239   2.97222   2.97748   2.97991
 Alpha virt. eigenvalues --    2.98617   3.00122   3.01545   3.01671   3.04087
 Alpha virt. eigenvalues --    3.05699   3.05962   3.07953   3.09168   3.09988
 Alpha virt. eigenvalues --    3.11481   3.11765   3.13887   3.14670   3.15297
 Alpha virt. eigenvalues --    3.18263   3.19808   3.22010   3.24824   3.25497
 Alpha virt. eigenvalues --    3.28380   3.29557   3.31321   3.33761   3.36351
 Alpha virt. eigenvalues --    3.37589   3.38434   3.38542   3.40559   3.42684
 Alpha virt. eigenvalues --    3.44112   3.45549   3.48848   3.51839   3.52848
 Alpha virt. eigenvalues --    3.54398   3.56079   3.56516   3.57041   3.57379
 Alpha virt. eigenvalues --    3.58518   3.62784   3.63346   3.66557   3.68619
 Alpha virt. eigenvalues --    3.72886   3.74806   3.76312   3.77305   3.78850
 Alpha virt. eigenvalues --    3.84885   3.86442   3.88664   3.90247   3.92471
 Alpha virt. eigenvalues --    3.94567   3.95838   3.97334   4.00425   4.02225
 Alpha virt. eigenvalues --    4.03443   4.04153   4.04340   4.06217   4.06615
 Alpha virt. eigenvalues --    4.11440   4.12932   4.18612   4.19931   4.21823
 Alpha virt. eigenvalues --    4.30437   4.30497   4.32089   4.53058   4.58480
 Alpha virt. eigenvalues --    4.62805   4.82354   4.83430   4.84879   4.90408
 Alpha virt. eigenvalues --    5.00292   5.01703   5.06454   5.10970   5.11667
 Alpha virt. eigenvalues --    5.28149   5.29509   5.82913  23.58094  23.71611
 Alpha virt. eigenvalues --   23.73952  23.85350  23.88479  23.91366  23.91449
 Alpha virt. eigenvalues --   23.93138  23.94172  23.95164  23.95660  23.97192
 Alpha virt. eigenvalues --   23.98669  24.00496  24.03649  24.04441  24.07135
 Alpha virt. eigenvalues --   24.07563  24.10625  24.11590  24.17445  24.17920
 Alpha virt. eigenvalues --   24.18364  24.30853  35.62015  35.64833  35.73607
 Alpha virt. eigenvalues --   35.85254  50.08062
          Condensed to atoms (all electrons):
               1          2          3          4          5          6
     1  O    8.239349  -0.000453  -0.000489  -0.086469   0.000028  -0.019718
     2  N   -0.000453   8.179731  -0.154007  -0.000891   0.021670  -0.598488
     3  N   -0.000489  -0.154007   7.581775   0.000210  -0.003292   0.127615
     4  N   -0.086469  -0.000891   0.000210   6.967547  -0.000047  -0.058907
     5  N    0.000028   0.021670  -0.003292  -0.000047   6.801536  -0.101225
     6  C   -0.019718  -0.598488   0.127615  -0.058907  -0.101225  12.929152
     7  C   -0.003724  -0.050181   0.007106   0.047469   0.066065  -1.252332
     8  C    0.019214   0.023289  -0.381937   0.006228   0.069127  -1.955112
     9  C   -0.045939   0.051547  -0.136704  -0.041850  -0.031036   1.785258
    10  C    0.034593  -0.052049  -0.009456  -0.119810  -0.017837   1.167829
    11  C   -0.080022   0.018133  -0.134430  -0.169424   0.030274   0.327234
    12  C    0.001465  -0.119210  -0.188212  -0.002748   0.030806  -2.258646
    13  C   -0.001266   0.140474  -0.367714   0.010597   0.049237  -3.985826
    14  C   -0.112572  -0.319229  -0.027622  -0.034441   0.001119   0.759726
    15  C    0.049760   0.027299   0.003512   0.215740  -0.006177  -1.613286
    16  C    0.012135  -0.505799   0.281374   0.002329   0.004952   0.896695
    17  C    0.317557   0.009279   0.013435   0.264871   0.008105   0.873794
    18  C    0.000321  -0.259703   0.162879  -0.000998  -0.091293   0.626641
    19  C   -0.000448   0.083498  -0.060574  -0.010257  -0.014960  -0.428888
    20  C   -0.000211   0.166664   0.255781  -0.000328   0.018298  -0.409864
    21  C   -0.000068  -0.272791  -0.007963   0.002443  -0.064913   0.728322
    22  C    0.064721  -0.071184   0.115882   0.028613  -0.001381  -0.835843
    23  C   -0.006153   0.050496  -0.363205   0.000597   0.008934  -0.593924
    24  C   -0.000014  -0.111962   0.005653  -0.000046   0.251200  -0.142398
    25  C    0.000186   0.101926   0.003469  -0.006522  -0.001154  -0.150239
    26  C   -0.000025   0.055004  -0.000164   0.001036  -0.018027   0.569018
    27  C    0.053842  -0.018329   0.039105   0.000496  -0.000305  -0.136347
    28  C   -0.001482   0.018789  -0.013796   0.000975   0.000299   0.012194
    29  C   -0.000056   0.241171  -0.001627  -0.000140   0.380054   0.039970
    30  H    0.000388  -0.001976  -0.000809  -0.058602  -0.000167  -0.056593
    31  H    0.001523   0.001035   0.000794  -0.057296   0.000569   0.035394
    32  H    0.000005  -0.077156  -0.009193  -0.000002   0.003543  -0.044884
    33  H    0.000093  -0.100564  -0.065274   0.000368   0.013104  -0.142753
    34  H    0.002017   0.000069   0.000154   0.362262   0.000011  -0.005465
    35  H   -0.000049  -0.005651  -0.001089  -0.002619   0.000135   0.014887
    36  H    0.000040  -0.008049  -0.088904   0.000041   0.001386  -0.010760
    37  H    0.000012  -0.016616  -0.041214  -0.000014  -0.003109   0.017195
    38  H   -0.000062   0.052148  -0.029164  -0.000167  -0.001743   0.026421
    39  H   -0.000000  -0.001435  -0.000220  -0.000032   0.001339  -0.015246
    40  H   -0.007324   0.000485  -0.004110   0.000300   0.000099  -0.003026
    41  H   -0.000190   0.000102  -0.011838  -0.000074   0.000017  -0.011641
    42  H    0.000000   0.023853   0.002933  -0.000023  -0.007186   0.024673
    43  H   -0.000002  -0.038904   0.002795   0.000035   0.000934   0.029027
    44  H    0.000003   0.004119   0.000042   0.000048  -0.000011  -0.007488
    45  H   -0.000000  -0.008399  -0.000425  -0.000014   0.000046  -0.009707
    46  H    0.001078  -0.000308   0.002014  -0.000007   0.000013  -0.002181
    47  H    0.000101  -0.000082  -0.003786   0.000012  -0.000021   0.002242
               7          8          9         10         11         12
     1  O   -0.003724   0.019214  -0.045939   0.034593  -0.080022   0.001465
     2  N   -0.050181   0.023289   0.051547  -0.052049   0.018133  -0.119210
     3  N    0.007106  -0.381937  -0.136704  -0.009456  -0.134430  -0.188212
     4  N    0.047469   0.006228  -0.041850  -0.119810  -0.169424  -0.002748
     5  N    0.066065   0.069127  -0.031036  -0.017837   0.030274   0.030806
     6  C   -1.252332  -1.955112   1.785258   1.167829   0.327234  -2.258646
     7  C    9.486186   2.103621  -1.103645  -0.499442   0.349010   1.597634
     8  C    2.103621  13.321743  -1.143523   0.076923   1.379038   0.735313
     9  C   -1.103645  -1.143523   9.071765   0.307233  -0.045622  -0.542091
    10  C   -0.499442   0.076923   0.307233  10.975788  -0.150816   0.325352
    11  C    0.349010   1.379038  -0.045622  -0.150816  12.491591  -0.588391
    12  C    1.597634   0.735313  -0.542091   0.325352  -0.588391  10.560925
    13  C   -0.120977   1.117792  -0.484691  -0.374000  -1.079763   1.910147
    14  C   -0.596423  -2.155803   1.834775  -0.658590   0.411672  -0.618527
    15  C    1.304610   0.999548  -1.475694  -2.448277  -0.706917   0.802854
    16  C   -0.524101  -3.750010  -0.282940  -0.732732  -0.244105  -0.577257
    17  C   -1.560474  -2.061976   1.705234  -0.485363  -3.918689  -0.184933
    18  C   -0.377529  -0.593435   0.096955   0.134521  -0.347842  -0.361966
    19  C   -1.881847  -0.753764   0.011695  -0.038829  -0.593522  -1.625808
    20  C    0.000360  -0.055948  -0.115669  -0.036352  -0.031398   0.111498
    21  C   -1.444797  -0.641320   0.198225  -0.027577  -0.412664  -1.550600
    22  C    0.094356  -0.548697  -2.174962  -0.382234  -0.218095  -0.184158
    23  C    0.117939   0.303356  -1.521262  -0.403895  -0.105036  -0.192891
    24  C    0.412081   0.335102  -0.236695  -0.078617   0.234365   0.270611
    25  C    0.003952   0.058819  -0.050144  -0.189355   0.132512  -1.380166
[...]
 02,0.00000731,0.00000440,-0.00000831,0.00026428,0.00037435,-0.00002374
 ,0.00000239,0.00000316,0.00000089,0.00000001,-0.00000608,0.00000262,-0
 .00000127,-0.00000355,-0.00001450,-0.00000244,0.00001003,0.00000920,0.
 21821490,-0.00004191,0.00002176,-0.00001174,-0.00022313,0.00000756,-0.
 00004405,0.00000389,-0.00002944,-0.00000464,-0.00000468,0.00002423,-0.
 00000364,-0.00001750,0.00001288,-0.00002145,0.00004944,-0.00006456,-0.
 00004445,0.00010194,0.00048417,0.00002585,0.00004454,0.00010056,-0.000
 01203,-0.00000374,0.00004378,-0.00000229,0.00007130,-0.00006135,0.0000
 0878,-0.00010285,-0.00000360,-0.00000776,0.00260775,0.00036183,0.00065
 980,0.00113277,-0.00020905,0.00011301,-0.00001681,0.00000469,-0.000002
 25,0.00000531,-0.00000493,0.00000199,-0.00001067,-0.00000862,0.0000044
 8,0.00004556,-0.00006673,0.00001995,-0.00001724,0.00006036,0.00004938,
 0.00913567,0.00967518,0.00053366,-0.00000392,0.00001274,-0.00000037,0.
 00257914,-0.00437025,0.00081725,0.00001610,-0.00000420,0.00000173,0.00
 001402,0.00000504,-0.00000112,0.00001226,-0.00001062,-0.00000055,-0.13
 915276,-0.18679399,-0.00568376,-0.02367753,-0.01594660,-0.00138438,-0.
 00001134,-0.00001733,0.00000281,-0.00002018,0.00000751,-0.00000374,0.0
 0001982,-0.00002443,0.00002332,0.00000749,-0.00000118,-0.00000424,0.00
 000706,-0.00000051,0.00000646,0.00002494,0.00003798,-0.00001906,-0.000
 01679,0.00000411,-0.00002216,-0.00000013,-0.00000257,-0.00000068,-0.00
 050367,0.00078787,-0.00034407,-0.00000460,-0.00000173,0.00000287,0.000
 00138,-0.00000139,0.00000158,0.00000260,-0.00000005,-0.00000692,-0.001
 12056,-0.00088676,-0.00006179,0.00000103,0.00000120,0.00000038,0.00000
 011,-0.00000182,0.00000092,-0.00000621,-0.00000458,-0.00001197,0.00000
 267,0.00001562,0.00004527,0.14878116,0.19565120,-0.00000630,0.00000341
 ,-0.00000967,0.00004363,-0.00013547,-0.00036147,0.00000977,0.00000122,
 -0.00005308,-0.00000442,0.00001126,0.00000272,0.00000329,-0.00000363,0
 .00000619,-0.00009517,0.00018958,-0.00047376,-0.00025209,-0.00018310,0
 .00078295,0.00000325,-0.00004653,-0.00007654,0.00000512,0.00002063,0.0
 0004724,0.00001288,-0.00000395,-0.00000466,-0.00000270,0.00000323,-0.0
 0003491,-0.00127666,0.00046250,0.00690906,0.00001039,0.00016113,-0.000
 62194,-0.00000601,-0.00000637,-0.00001521,-0.00000814,-0.00000273,0.00
 001972,-0.00001485,-0.00000340,-0.00000134,0.00000173,-0.00000294,0.00
 002482,-0.00007784,0.00011587,-0.00005895,-0.00226877,-0.00264849,0.00
 262255,0.00000642,0.00000077,-0.00000031,-0.00061551,0.00087786,0.0058
 8598,0.00000703,0.00000075,0.00000176,0.00000812,0.00000684,0.00001298
 ,0.00001611,-0.00003531,0.00003338,-0.00983030,-0.00551674,-0.03495582
 ,0.00201876,0.00164865,0.00230565,-0.00000421,-0.00000798,0.00000456,-
 0.00000771,0.00000515,-0.00000364,-0.00000500,0.00000687,-0.00001162,0
 .00000311,0.00000642,0.00000249,-0.00000316,-0.00000282,0.00000383,0.0
 0009378,0.00000865,0.00005183,0.00000166,-0.00000176,-0.00000249,-0.00
 000121,-0.00000196,-0.00000604,0.00056542,-0.00029070,-0.00439630,-0.0
 0000092,-0.00000058,0.00000071,0.00000009,-0.00000046,0.00000092,-0.00
 000137,-0.00000292,0.00000152,0.00003588,0.00007612,0.00031674,0.00000
 025,0.00000019,-0.00000028,0.00000017,-0.00000035,0.00000057,0.0000065
 6,-0.00000089,-0.00000672,0.00000090,0.00000394,-0.00000909,0.01119857
 ,0.00561244,0.02573190,-0.00009667,0.00005496,-0.00002603,-0.00116546,
 0.00070733,-0.00023107,-0.00004916,-0.00004674,0.00000216,-0.00000476,
 0.00008071,-0.00001181,-0.00002658,0.00001631,-0.00003200,0.00000792,-
 0.00064841,-0.00000437,0.00017983,0.00012135,0.00008094,-0.00007145,0.
 00023525,-0.00002045,-0.00001756,-0.00012197,0.00003006,-0.00003681,-0
 .00003794,-0.00000290,-0.00005095,0.00014825,-0.00003149,0.00024466,-0
 .00040582,0.00017497,-0.00045619,-0.00354106,-0.00056951,-0.00000016,0
 .00003955,-0.00000868,-0.00000089,-0.00001829,0.00000400,0.00000406,-0
 .00005250,0.00001765,0.00011185,-0.00015147,0.00004231,-0.00006710,0.0
 0026758,0.00013658,0.00172584,0.00111033,-0.00055005,-0.00001294,0.000
 02705,-0.00000637,-0.01683079,0.00785717,-0.00253598,0.00001546,-0.000
 01456,0.00000059,0.00001080,0.00001282,-0.00000276,0.00001111,-0.00004
 716,-0.00001489,-0.00265216,-0.00067711,-0.00054595,-0.31147303,0.0737
 1628,-0.03217222,-0.00001819,-0.00002042,0.00000320,-0.00003414,0.0000
 0101,-0.00000316,0.00004045,-0.00002790,0.00004526,0.00000535,0.000002
 08,-0.00000870,0.00001090,0.00000062,0.00000810,0.00004304,0.00000838,
 -0.00001841,-0.00000997,-0.00004640,-0.00004123,-0.00000291,-0.0000056
 9,-0.00000022,-0.00027006,-0.00005946,-0.00002528,-0.00001037,-0.00000
 547,0.00000555,0.00000231,-0.00000528,0.00000330,0.00000745,0.00000497
 ,-0.00001781,0.00096940,0.00004624,0.00052731,0.00000185,0.00000264,0.
 00000042,-0.00000011,-0.00000472,0.00000227,-0.00000918,-0.00000997,-0
 .00002947,-0.00000957,0.00002890,0.00004358,0.00065801,0.00029263,0.00
 043028,0.32933816,0.00002186,0.00000503,0.00000310,-0.00099146,0.00096
 975,-0.00014261,0.00001361,0.00001858,0.00000472,0.00003115,0.00003052
 ,-0.00000048,-0.00000292,0.00000142,-0.00000330,-0.00007283,-0.0004159
 6,0.00001489,0.00013337,0.00018337,0.00000049,-0.00010337,0.00012763,-
 0.00006269,-0.00001903,-0.00007515,0.00001684,-0.00008634,0.00001074,-
 0.00001155,0.00004161,0.00002897,-0.00000398,-0.00071249,-0.00085290,-
 0.00004550,-0.00326765,-0.00290583,0.00024025,-0.00000465,0.00001399,-
 0.00000109,-0.00002293,-0.00000713,-0.00000468,-0.00000244,-0.00000212
 ,0.00000348,-0.00001244,-0.00002563,0.00000293,0.00000275,0.00006892,0
 .00009361,0.00042000,-0.00538165,0.00070191,-0.00000004,-0.00000082,-0
 .00000265,-0.02229247,0.00893149,-0.00265468,-0.00000069,-0.00000379,0
 .00000131,-0.00000043,0.00000145,-0.00000101,0.00000203,-0.00000363,0.
 00001250,0.02991733,-0.00384481,0.00341104,0.07424072,-0.07996111,0.01
 001371,-0.00000091,-0.00000079,0.00000002,-0.00000372,-0.00000266,-0.0
 0000012,0.00000568,0.00000099,0.00000501,-0.00001455,0.00001564,0.0000
 2168,-0.00001171,0.00001171,-0.00002871,0.00001139,0.00000187,-0.00000
 448,0.00000048,-0.00002663,-0.00001373,0.00000393,0.00000135,0.0000008
 2,0.00144791,-0.00037859,0.00017318,-0.00000256,-0.00000010,-0.0000005
 7,0.00000133,-0.00000013,0.00000095,0.00000136,0.00000173,-0.00000544,
 0.00064309,0.00103011,-0.00026999,-0.00000086,-0.00000039,0.00000016,-
 0.00000009,-0.00000061,0.00000031,-0.00000681,-0.00000414,-0.00000758,
 -0.00000823,0.00000718,0.00000709,-0.00046454,0.00119646,-0.00032342,-
 0.07883197,0.08123564,-0.00001304,0.00000728,-0.00000487,-0.00022405,0
 .00002528,0.00089831,-0.00002584,-0.00002974,0.00001247,0.00000416,0.0
 0000811,-0.00000638,-0.00000341,0.00000572,-0.00000132,-0.00005796,0.0
 0004897,-0.00013501,-0.00017031,-0.00002237,-0.00041047,0.00006953,-0.
 00000689,-0.00037734,-0.00001558,0.00002945,0.00000936,0.00005983,-0.0
 0004677,0.00007310,-0.00006288,0.00001100,-0.00002600,0.00033343,-0.00
 024748,-0.00096679,-0.00034753,0.00033133,0.00679369,-0.00000572,0.000
 02056,0.00005172,0.00001503,-0.00000566,-0.00006066,0.00002852,-0.0000
 0567,0.00000247,0.00001089,-0.00003212,0.00001047,-0.00003861,-0.00003
 556,0.00006711,-0.00054176,0.00083215,0.00611000,-0.00000212,0.0000030
 1,-0.00000695,-0.00075509,0.00068015,0.00322008,-0.00000533,0.00000253
 ,0.00001216,-0.00000905,-0.00000319,0.00000191,-0.00002361,0.,-0.00000
 336,-0.00223413,0.00014191,0.00279233,-0.03222127,0.00997358,-0.039370
 56,-0.00000026,0.00000432,-0.00000831,0.00000663,-0.00000185,0.0000034
 2,0.00000868,-0.00000964,0.00000068,0.00003877,-0.00001289,0.00002629,
 -0.00004206,0.00001765,0.00000896,-0.00001401,0.00000139,-0.00001287,-
 0.00000053,-0.00000464,-0.00001022,0.00000034,-0.00000030,0.00000094,-
 0.00011615,0.00002845,0.00011335,-0.00000123,-0.00000017,-0.00000104,0
 .00000252,-0.00000283,0.00000013,0.00000247,0.00000459,-0.00000158,0.0
 0050820,-0.00034234,-0.00443950,0.00000058,0.00000094,0.00000155,0.000
 00015,0.00000019,-0.00000048,-0.00000046,-0.00000018,-0.00000344,0.000
 02895,0.00000662,0.00002906,0.00046038,-0.00023258,-0.00366341,0.03535
 265,-0.01114149,0.02927383,-0.00002064,-0.00015999,0.00002958,-0.00012
 468,0.00006204,-0.00001563,-0.00010088,0.00020996,-0.00000350,-0.00004
 302,-0.00013375,0.00001150,0.00000242,-0.00000009,0.00001345,0.0002228
 2,0.00007912,-0.00000783,0.00001023,-0.00008995,0.00002020,-0.00056174
 ,-0.00020194,-0.00002114,-0.00019982,0.00088631,-0.00030073,-0.0001223
 3,-0.00001846,0.00000195,0.00003226,0.00008146,-0.00000507,-0.00000129
 ,-0.00003722,0.00001054,-0.00006207,0.00005885,0.00000391,-0.00178139,
 -0.00395737,0.00007025,-0.00002568,0.00000598,-0.00001281,0.00040592,-
 0.00062980,0.00025978,0.00000113,0.00020312,-0.00004587,0.00000389,-0.
 00007020,-0.00002195,0.00003423,0.00002587,-0.00000169,-0.00001622,-0.
 00012352,0.00007440,0.00004559,-0.00001025,0.00000178,-0.01831126,0.01
 034774,-0.00514220,0.00164823,0.00020144,-0.00051984,-0.00000129,0.000
 01305,0.00000356,-0.00004916,0.00003484,-0.00000857,-0.00005256,-0.000
 04277,-0.00000298,-0.29069417,0.08762984,-0.05233995,0.00033744,-0.001
 42153,0.00024628,-0.00000711,0.00000381,-0.00001163,-0.00000807,-0.000
 02025,-0.00000125,-0.00001030,-0.00001479,0.00000434,-0.00000969,0.000
 01040,0.00000564,0.00000969,-0.00000771,-0.00000102,-0.00000599,0.0000
 0553,-0.00000081,0.00000477,-0.00000557,0.00000302,0.00002103,0.000016
 49,-0.00000483,-0.00000446,0.00003036,-0.00001927,-0.00002418,0.000015
 81,-0.00000785,-0.00000139,0.00000678,0.00000120,0.00108887,0.00014711
 ,0.00059156,-0.00011562,-0.00009641,-0.00002815,-0.00000072,0.00000151
 ,0.00000909,0.00000017,-0.00000371,-0.00000115,-0.00000805,-0.00000263
 ,-0.00000059,-0.00000657,-0.00000107,0.00000033,0.30783593,0.00005207,
 0.00001069,0.00000417,-0.00002182,-0.00001824,-0.00000779,0.00017547,0
 .00012182,-0.00009388,0.00000811,-0.00001881,0.00000679,-0.00000047,0.
 00000077,-0.00000053,-0.00004658,0.00008775,-0.00005800,-0.00001150,0.
 00004821,0.00000268,-0.00016048,-0.00023386,-0.00008693,-0.00045084,0.
 00077563,-0.00000027,0.00006629,-0.00003901,-0.00000941,-0.00003165,-0
 .00002261,0.00000920,0.00001048,0.00000065,-0.00000218,-0.00001062,0.0
 0001046,-0.00000008,-0.00358821,-0.00149681,0.00200789,-0.00000175,0.0
 0000341,0.00000407,-0.00083266,-0.00090094,-0.00000585,-0.00004077,0.0
 0003956,0.00000945,-0.00000332,-0.00000444,-0.00000309,-0.00000230,-0.
 00000018,0.00000099,0.00001914,0.00003529,-0.00002672,-0.00000097,-0.0
 0000251,0.00000361,-0.01904644,0.00984714,-0.00408128,-0.00058705,-0.0
 0450906,0.00289858,0.00000186,0.00000144,0.00000089,0.00000124,-0.0000
 0058,0.00000055,-0.00000143,0.00000144,-0.00000073,0.08760049,-0.08949
 725,0.02528542,0.02856804,-0.00643808,0.00541637,0.00000065,-0.0000011
 7,0.00000031,-0.00000145,0.00000105,-0.00000025,0.00000065,-0.00000131
 ,-0.00000003,0.00000104,0.00000159,0.00000051,-0.00000383,0.00000330,0
 .00000389,-0.00000272,-0.00000142,-0.00000206,0.00000019,-0.00000019,-
 0.00000027,-0.00003616,-0.00000341,-0.00004274,-0.00001044,0.00001040,
 0.00002223,0.00002499,0.00001578,-0.00001790,-0.00000026,0.00000039,0.
 00000008,0.00083869,0.00049508,-0.00134426,0.00133173,-0.00041217,0.00
 036612,-0.00000013,0.00000003,0.00000010,0.00000039,0.00000023,-0.0000
 0130,-0.00000025,-0.00000002,-0.00000004,-0.00000026,0.,-0.00000086,-0
 .09348350,0.09121572,-0.00002440,-0.00003397,-0.00000198,0.00002205,0.
 00000252,-0.00004745,-0.00010690,-0.00010195,-0.00023755,-0.00000817,-
 0.00001316,0.00000874,-0.00000056,0.00000078,0.00000040,0.00002885,-0.
 00003314,-0.00007670,0.00000624,-0.00001655,0.00005109,0.00006599,-0.0
 0026904,-0.00044195,-0.00015299,0.00009434,0.00078094,-0.00000914,-0.0
 0000846,-0.00006248,0.00002050,-0.00000202,-0.00000112,-0.00000612,-0.
 00000388,-0.00001828,-0.00001777,-0.00000470,0.00000082,-0.00008449,0.
 00219616,0.00664953,-0.00000602,0.00000276,0.00001886,0.00042040,-0.00
 004793,-0.00053639,-0.00000314,0.00002227,0.00007693,0.00000627,-0.000
 00078,-0.00000059,0.00000792,0.00000366,0.00000559,0.00008427,-0.00006
 693,-0.00008228,0.00001179,0.00000250,0.00001030,0.00335642,-0.0007900
 1,0.00309830,-0.00016234,0.00294236,0.00499483,0.00000040,0.00000181,0
 .00000048,-0.00000964,0.00000896,-0.00000152,-0.00000862,-0.00001183,0
 .00000074,-0.05240150,0.02506227,-0.04644350,-0.00830808,0.00231889,0.
 00030703,0.00000026,-0.00000043,-0.00000023,-0.00000488,0.00000386,-0.
 00000228,0.00000290,-0.00000678,0.00000179,-0.00000074,0.00000148,0.00
 000080,-0.00000077,0.00000155,-0.00000039,0.00000039,0.00000024,-0.000
 00614,0.00000080,-0.00000065,-0.00000041,-0.00005620,0.00001505,-0.000
 01923,0.00003424,0.00001789,0.00004416,0.00001360,0.00000968,-0.000011
 03,0.,0.00000083,0.00000035,0.00035145,-0.00134959,-0.00420782,-0.0004
 5414,0.00021990,0.00030360,-0.00000020,0.00000007,0.00000057,-0.000000
 11,-0.00000059,-0.00000042,-0.00000089,-0.00000019,-0.00000003,-0.0000
 0020,-0.00000024,-0.00000266,0.05684126,-0.02893557,0.03904782,0.00004
 995,-0.00006190,0.00002293,-0.00005235,0.00003304,-0.00000557,-0.00104
 884,-0.00143495,0.00023268,-0.00001542,-0.00008751,0.00000951,0.000002
 08,0.00000014,0.00001013,0.00005991,-0.00022811,0.00006222,-0.00006548
 ,0.00005463,-0.00000994,-0.00033787,0.00066364,-0.00024284,0.00031676,
 -0.00003941,0.00012184,0.00001510,-0.00005218,0.00001163,-0.00004693,-
 0.00006253,0.00001029,0.00001615,-0.00004328,0.00000387,-0.00002558,0.
 00004932,0.00000320,-0.00028542,0.00061917,-0.00005942,-0.00000622,0.0
 0001386,-0.00000583,-0.00286034,0.00314975,-0.00197795,-0.00007804,0.0
 0013625,-0.00003624,0.00001088,-0.00003559,-0.00001914,0.00001105,0.00
 001798,-0.00000371,0.00003285,-0.00022692,0.00015574,0.00002267,-0.000
 00778,0.00000258,0.00147186,0.00105948,-0.00081779,-0.01841128,-0.0180
 1211,0.00275283,-0.00000478,0.00000466,0.00000066,-0.00002798,0.000014
 82,-0.00000310,-0.00003264,-0.00001944,-0.00000353,0.00629856,0.004190
 53,-0.00088916,-0.23667914,-0.13166326,0.01625160,-0.00000564,0.000002
 87,-0.00000984,-0.00000358,-0.00001428,-0.00000069,-0.00000341,-0.0000
 1323,0.00000425,-0.00000960,0.00000620,0.00000465,0.00001188,-0.000012
 55,-0.00000714,-0.00000235,0.00000367,-0.00000063,0.00000295,-0.000004
 30,0.00000168,0.00002888,0.00001508,0.00001571,0.00000100,0.00004230,-
 0.00001357,-0.00003764,0.00003863,-0.00002186,-0.00000116,0.00000482,0
 .00000110,0.00014773,0.00023880,-0.00004245,0.00120286,0.00023981,0.00
 052298,-0.00000014,0.00000131,0.00000589,-0.00000033,-0.00000265,0.000
 00154,-0.00000603,-0.00000172,-0.00000021,-0.00000476,-0.00000037,-0.0
 0000003,0.00066572,-0.00032368,0.00055203,0.24968411,-0.00024807,-0.00
 020338,-0.00000170,-0.00006065,0.00003691,-0.00001439,0.00014620,0.000
 77984,0.00008581,-0.00008063,-0.00004262,-0.00000782,0.00000010,0.0000
 0007,0.00000404,0.00010984,0.00003189,-0.00010186,0.00001968,-0.000044
 78,0.00002228,0.00007460,-0.00013740,-0.00003994,-0.00015288,0.0000391
 8,-0.00014939,-0.00004579,-0.00000645,0.00000070,0.00003378,0.00008721
 ,-0.00001280,0.00000384,-0.00000396,0.00001601,0.00000298,0.00002517,0
 .00000078,0.00094648,-0.00024954,-0.00012198,-0.00001121,-0.00001174,0
 .00000172,0.00290592,0.00022485,0.00221883,0.00022505,0.00000053,0.000
 03589,0.00000025,-0.00001986,-0.00000458,0.00000725,0.00000471,0.00000
 224,-0.00005052,-0.00004501,0.00000566,0.00000502,-0.00000171,0.000001
 24,0.00188789,-0.00443936,0.00319578,0.01121621,0.00984001,-0.00058645
 ,-0.00000021,0.00000267,0.00000097,-0.00001116,0.00000422,-0.00000287,
 -0.00000770,-0.00000819,-0.00000027,-0.02525194,-0.01235396,0.00172857
 ,-0.13230272,-0.15353263,0.01957210,-0.00000121,0.00000166,-0.00000355
 ,-0.00000520,-0.00000582,-0.00000210,-0.00000862,-0.00000354,0.0000012
 4,-0.00000285,0.00000291,0.00000108,0.00000373,-0.00000158,0.00000010,
 -0.00000047,0.00000562,-0.00000148,0.00000157,-0.00000110,0.00000119,0
 .00001600,0.00000790,-0.00000803,0.00000941,0.00001033,-0.00001151,-0.
 00001027,0.00000069,0.00000133,-0.00000022,0.00000141,0.00000012,-0.00
 114577,-0.00044438,0.00003838,-0.00041593,0.00045541,-0.00145846,-0.00
 000026,0.00000034,0.00000272,-0.00000016,-0.00000067,-0.00000009,-0.00
 000156,-0.00000039,-0.00000090,-0.00000184,0.00000002,0.00000005,0.000
 45505,0.00087422,-0.00123143,0.14174699,0.15912029,0.00008125,0.000056
 80,-0.00001340,-0.00001694,0.00000878,0.00000217,-0.00024321,-0.000145
 74,0.00088577,0.00002415,0.00001299,0.00000607,-0.00000230,0.00000007,
 0.00000041,0.00003896,-0.00014407,-0.00036229,-0.00001693,0.00000265,0
 .00003590,-0.00005775,-0.00003526,-0.00014801,-0.00007839,-0.00016028,
 -0.00035514,-0.00001934,-0.00001114,0.00000180,0.00001088,0.00002940,-
 0.00000712,-0.00000925,-0.00000328,0.00005118,0.00001699,0.00000928,0.
 00000025,-0.00014294,0.00007348,-0.00103801,-0.00000370,0.00000860,0.0
 0001296,-0.00168830,0.00211151,0.00629755,-0.00007138,-0.00000541,-0.0
 0001988,0.00000336,0.00000279,-0.00000754,-0.00000151,0.00000161,0.000
 01039,-0.00007859,0.00007267,0.00005593,-0.00000625,0.00000043,0.00000
 155,-0.00112624,0.00308869,0.00515851,-0.00520290,-0.00391779,0.003987
 79,-0.00000278,-0.00000373,-0.00000149,-0.00000017,-0.00000349,-0.0000
 0569,0.00000430,0.00000187,0.00000203,0.00756357,0.00493865,0.00241737
 ,0.01625714,0.01969048,-0.03964477,0.00000162,-0.00000031,0.00000009,0
 .00000785,-0.00000398,0.00000127,-0.00000265,-0.00000019,-0.00000085,0
 .00000040,0.00000238,-0.00000032,-0.00000117,0.00000015,-0.00000007,0.
 00000114,-0.00000271,-0.00000209,-0.00000020,0.,0.00000168,-0.00001416
 ,0.00000681,0.00001315,-0.00000262,0.00000064,-0.00001677,-0.00000408,
 0.00000443,-0.00000784,0.00000020,-0.00000015,-0.00000038,0.00036294,0
 .00018024,0.00006862,0.00068674,-0.00136903,-0.00411508,0.00000025,-0.
 00000032,-0.00000011,0.00000004,0.00000072,0.00000099,0.00000035,-0.00
 000004,-0.00000280,-0.00000015,-0.00000002,-0.00000019,0.00032268,-0.0
 0132191,-0.00320122,-0.01659093,-0.02317724,0.02993760\\-0.00000676,0.
 00000121,-0.00001374,-0.00003337,-0.00000190,0.00000347,0.00003907,-0.
 00000829,-0.00004822,0.00000118,-0.00001271,-0.00003862,0.00000288,-0.
 00000049,-0.00000017,0.00003826,-0.00001723,-0.00000599,-0.00000928,-0
 .00000916,-0.00000112,-0.00003640,-0.00000138,0.00002327,0.00002674,-0
 .00000304,0.00001881,0.00001076,0.00000966,-0.00000612,-0.00001766,0.0
 0000606,-0.00001964,-0.00001235,0.00000521,-0.00000600,0.00003106,0.00
 001561,-0.00000195,0.00000239,0.00000553,-0.00000667,-0.00000060,-0.00
 000416,0.00000577,-0.00004846,0.00001125,0.00000735,0.00001316,0.00000
 716,0.00002012,-0.00001171,0.00001452,0.00000638,0.00000006,0.00000084
 ,0.00000444,-0.00002027,0.00000663,0.00003991,-0.00001619,-0.00001305,
 0.00000482,-0.00000142,0.00000275,-0.00000263,0.00002258,-0.00000493,-
 0.00000017,0.00000906,-0.00001051,-0.00001593,-0.00000094,-0.00000726,
 0.00000020,0.00000644,0.00001134,0.00000055,0.00000323,-0.00001624,0.0
 0000329,-0.00001241,0.00001599,-0.00000398,-0.00000201,-0.00001647,0.0
 0000369,0.00000071,0.00000473,-0.00000866,0.00000161,-0.00000444,-0.00
 000651,0.00000240,0.00000374,0.00000745,0.00000612,-0.00000542,0.00001
 412,-0.00000140,0.00000207,0.00000764,0.00000329,0.00000103,-0.0000036
 1,0.00000155,0.00000167,-0.00000811,0.00000859,-0.00000157,0.00000419,
 0.00000928,-0.00000002,0.00000473,0.00000006,0.00000195,0.00000201,-0.
 00000066,-0.00000213,-0.00000305,-0.00000217,0.00000332,0.00000319,-0.
 00000559,0.00000364,0.00000184,0.00000022,0.00000020,0.00001607,0.0000
 0110,0.00000031,-0.00000315,0.00000008,0.00000148,0.00000288,-0.000001
 02,0.00000063,-0.00000248,-0.00000124,0.00000186,0.00000038\\\@
 The archive entry for this job was punched.


 MODELS ARE TO BE USED, NOT BELIEVED.

    -- PARAPHRASED BY H. THIEL IN "PRINCIPLES OF ECONOMETRICS"
 Job cpu time:       2 days  6 hours 35 minutes 54.8 seconds.
 Elapsed time:       0 days  0 hours 32 minutes 44.8 seconds.
 File lengths (MBytes):  RWF=   2312 Int=      0 D2E=      0 Chk=     63 Scr=      1
 Normal termination of Gaussian 16 at Mon Mar  2 06:55:30 2026.
