SLURM_NODELIST orfoz237
NUMBER OF TASKS 1
NUMBER OF CORES=112
 Entering Gaussian System, Link 0=/arf/sw/apps/gaussian/avx/g16/g16
 Initial command:
 /arf/sw/apps/gaussian/avx/g16/l1.exe "/tmp/5347244/Gau-3741440.inp" -scrdir="/tmp/5347244/"
 Entering Link 1 = /arf/sw/apps/gaussian/avx/g16/l1.exe PID=   3741443.
  
 Copyright (c) 1988-2019, Gaussian, Inc.  All Rights Reserved.
  
 This is part of the Gaussian(R) 16 program.  It is based on
 the Gaussian(R) 09 system (copyright 2009, Gaussian, Inc.),
 the Gaussian(R) 03 system (copyright 2003, Gaussian, Inc.),
 the Gaussian(R) 98 system (copyright 1998, Gaussian, Inc.),
 the Gaussian(R) 94 system (copyright 1995, Gaussian, Inc.),
 the Gaussian 92(TM) system (copyright 1992, Gaussian, Inc.),
 the Gaussian 90(TM) system (copyright 1990, Gaussian, Inc.),
 the Gaussian 88(TM) system (copyright 1988, Gaussian, Inc.),
 the Gaussian 86(TM) system (copyright 1986, Carnegie Mellon
 University), and the Gaussian 82(TM) system (copyright 1983,
 Carnegie Mellon University). Gaussian is a federally registered
 trademark of Gaussian, Inc.
  
 This software contains proprietary and confidential information,
 including trade secrets, belonging to Gaussian, Inc.
  
 This software is provided under written license and may be
 used, copied, transmitted, or stored only in accord with that
 written license.
  
 The following legend is applicable only to US Government
 contracts under FAR:
  
                    RESTRICTED RIGHTS LEGEND
  
 Use, reproduction and disclosure by the US Government is
 subject to restrictions as set forth in subparagraphs (a)
 and (c) of the Commercial Computer Software - Restricted
 Rights clause in FAR 52.227-19.
  
 Gaussian, Inc.
 340 Quinnipiac St., Bldg. 40, Wallingford CT 06492
  
  
 ---------------------------------------------------------------
 Warning -- This program may not be used in any manner that
 competes with the business of Gaussian, Inc. or will provide
 assistance to any competitor of Gaussian, Inc.  The licensee
 of this program is prohibited from giving any competitor of
 Gaussian, Inc. access to this program.  By using this program,
 the user acknowledges that Gaussian, Inc. is engaged in the
 business of creating and licensing software in the field of
 computational chemistry and represents and warrants to the
 licensee that it is not a competitor of Gaussian, Inc. and that
 it will not use this program in any manner prohibited above.
 ---------------------------------------------------------------
  

 Cite this work as:
 Gaussian 16, Revision C.01,
 M. J. Frisch, G. W. Trucks, H. B. Schlegel, G. E. Scuseria, 
 M. A. Robb, J. R. Cheeseman, G. Scalmani, V. Barone, 
 G. A. Petersson, H. Nakatsuji, X. Li, M. Caricato, A. V. Marenich, 
 J. Bloino, B. G. Janesko, R. Gomperts, B. Mennucci, H. P. Hratchian, 
 J. V. Ortiz, A. F. Izmaylov, J. L. Sonnenberg, D. Williams-Young, 
 F. Ding, F. Lipparini, F. Egidi, J. Goings, B. Peng, A. Petrone, 
 T. Henderson, D. Ranasinghe, V. G. Zakrzewski, J. Gao, N. Rega, 
 G. Zheng, W. Liang, M. Hada, M. Ehara, K. Toyota, R. Fukuda, 
 J. Hasegawa, M. Ishida, T. Nakajima, Y. Honda, O. Kitao, H. Nakai, 
 T. Vreven, K. Throssell, J. A. Montgomery, Jr., J. E. Peralta, 
 F. Ogliaro, M. J. Bearpark, J. J. Heyd, E. N. Brothers, K. N. Kudin, 
 V. N. Staroverov, T. A. Keith, R. Kobayashi, J. Normand, 
 K. Raghavachari, A. P. Rendell, J. C. Burant, S. S. Iyengar, 
 J. Tomasi, M. Cossi, J. M. Millam, M. Klene, C. Adamo, R. Cammi, 
 J. W. Ochterski, R. L. Martin, K. Morokuma, O. Farkas, 
 J. B. Foresman, and D. J. Fox, Gaussian, Inc., Wallingford CT, 2019.
 
 ******************************************
 Gaussian 16:  ES64L-G16RevC.01  3-Jul-2019
                 2-Mar-2026 
 ******************************************
 %nprocshared=112
 Will use up to  112 processors via shared memory.
 %mem=10GB
 %chk=Axitinib.chk
 ----------------------------------------------------------------------
 # opt freq b3lyp/6-311++g(d,p) scrf=(pcm,solvent=water) geom=connectiv
 ity
 ----------------------------------------------------------------------
 1/18=20,19=15,26=3,38=1,57=2/1,3;
 2/9=110,12=2,17=6,18=5,40=1/2;
 3/5=4,6=6,7=1111,11=2,25=1,30=1,70=2201,71=1,72=1,74=-5/1,2,3;
 4//1;
 5/5=2,38=5,53=1/2;
 6/7=2,8=2,9=2,10=2,28=1/1;
 7//1,2,3,16;
 1/18=20,19=15,26=3/3(2);
 2/9=110/2;
 99//99;
 2/9=110/2;
 3/5=4,6=6,7=1111,11=2,25=1,30=1,70=2205,71=1,72=1,74=-5/1,2,3;
 4/5=5,16=3,69=1/1;
 5/5=2,38=5,53=1/2;
 7//1,2,3,16;
 1/18=20,19=15,26=3/3(-5);
 2/9=110/2;
 6/7=2,8=2,9=2,10=2,19=2,28=1/1;
 99/9=1/99;
 --------
 Axitinib
 --------
 Symbolic Z-matrix:
 Charge =  0 Multiplicity = 1
 S                    -3.2724    0.426     1.8356 
 O                    -6.6235   -0.7942    1.1015 
 N                     0.526    -1.6296   -1.1911 
 N                     1.8616   -1.5157   -1.2808 
 N                    -5.1376   -2.0264   -0.1832 
 N                     6.0507    0.7697    0.6552 
 C                     1.0254   -0.1979    0.3932 
 C                    -0.0377   -0.8643   -0.206 
 C                     2.1618   -0.6437   -0.3154 
 C                    -1.3638   -0.7041    0.2015 
 C                    -1.5988    0.1744    1.2642 
 C                     0.7733    0.6814    1.4595 
 C                    -0.5499    0.8563    1.8839 
 C                    -4.0506    1.0577    0.3572 
 C                     3.4897   -0.2216   -0.0443 
 C                    -5.1278    0.4064   -0.2477 
 C                    -3.5546    2.2394   -0.1975 
 C                     4.6351   -0.6218   -0.6582 
 C                    -5.7064    0.9347   -1.4018 
 C                    -4.1332    2.7676   -1.3516 
 C                    -5.688    -0.8302    0.2859 
 C                    -5.2089    2.1153   -1.9537 
 C                     5.9908   -0.1526   -0.3196 
 C                     7.0699   -0.6684   -0.9994 
 C                     8.3285   -0.1945   -0.6465 
 C                    -5.5996   -3.3315    0.2318 
 C                     7.2904    1.2066    0.9709 
 C                     8.4496    0.761     0.3564 
 H                    -2.161    -1.2494   -0.2917 
 H                     1.5754    1.2207    1.9539 
 H                    -0.7422    1.5384    2.7095 
 H                     0.0551   -2.2512   -1.8367 
 H                     3.5889    0.5066    0.7587 
 H                    -2.7223    2.7733    0.255 
 H                     4.5773   -1.352    -1.4628 
 H                    -6.5454    0.4371   -1.8815 
 H                    -3.7472    3.6878   -1.7805 
 H                    -5.6596    2.5269   -2.8521 
 H                    -4.3989   -1.9864   -0.8793 
 H                     6.9688   -1.4136   -1.781 
 H                     9.2136   -0.5689   -1.1522 
 H                    -4.7527   -4.0211    0.2095 
 H                    -6.3647   -3.6645   -0.4736 
 H                    -6.0214   -3.2881    1.2389 
 H                     7.3306    1.9513    1.759 
 H                     9.4206    1.1447    0.6478 
 

 GradGradGradGradGradGradGradGradGradGradGradGradGradGradGradGradGradGrad
 Berny optimization.
 Initialization pass.
                           ----------------------------
                           !    Initial Parameters    !
                           ! (Angstroms and Degrees)  !
 --------------------------                            --------------------------
 ! Name  Definition              Value          Derivative Info.                !
 --------------------------------------------------------------------------------
 ! R1    R(1,11)                 1.7863         estimate D2E/DX2                !
 ! R2    R(1,14)                 1.7861         estimate D2E/DX2                !
 ! R3    R(2,21)                 1.2416         estimate D2E/DX2                !
 ! R4    R(3,4)                  1.3434         estimate D2E/DX2                !
 ! R5    R(3,8)                  1.3689         estimate D2E/DX2                !
 ! R6    R(3,32)                 1.0124         estimate D2E/DX2                !
 ! R7    R(4,9)                  1.3351         estimate D2E/DX2                !
 ! R8    R(5,21)                 1.3978         estimate D2E/DX2                !
 ! R9    R(5,26)                 1.4453         estimate D2E/DX2                !
 ! R10   R(5,39)                 1.0158         estimate D2E/DX2                !
 ! R11   R(6,23)                 1.3433         estimate D2E/DX2                !
 ! R12   R(6,27)                 1.3518         estimate D2E/DX2                !
 ! R13   R(7,8)                  1.3904         estimate D2E/DX2                !
 ! R14   R(7,9)                  1.4115         estimate D2E/DX2                !
 ! R15   R(7,12)                 1.4049         estimate D2E/DX2                !
 ! R16   R(8,10)                 1.3965         estimate D2E/DX2                !
 ! R17   R(9,15)                 1.4195         estimate D2E/DX2                !
 ! R18   R(10,11)                1.3987         estimate D2E/DX2                !
 ! R19   R(10,29)                1.0845         estimate D2E/DX2                !
 ! R20   R(11,13)                1.3961         estimate D2E/DX2                !
 ! R21   R(12,13)                1.4006         estimate D2E/DX2                !
 ! R22   R(12,30)                1.0857         estimate D2E/DX2                !
 ! R23   R(13,31)                1.0881         estimate D2E/DX2                !
 ! R24   R(14,16)                1.3966         estimate D2E/DX2                !
 ! R25   R(14,17)                1.3965         estimate D2E/DX2                !
 ! R26   R(15,18)                1.3598         estimate D2E/DX2                !
 ! R27   R(15,33)                1.0885         estimate D2E/DX2                !
 ! R28   R(16,19)                1.3949         estimate D2E/DX2                !
 ! R29   R(16,21)                1.4587         estimate D2E/DX2                !
 ! R30   R(17,20)                1.3949         estimate D2E/DX2                !
 ! R31   R(17,34)                1.0874         estimate D2E/DX2                !
 ! R32   R(18,23)                1.474          estimate D2E/DX2                !
 ! R33   R(18,35)                1.0881         estimate D2E/DX2                !
 ! R34   R(19,22)                1.395          estimate D2E/DX2                !
 ! R35   R(19,36)                1.087          estimate D2E/DX2                !
 ! R36   R(20,22)                1.3947         estimate D2E/DX2                !
 ! R37   R(20,37)                1.0861         estimate D2E/DX2                !
 ! R38   R(22,38)                1.0861         estimate D2E/DX2                !
 ! R39   R(23,24)                1.3757         estimate D2E/DX2                !
 ! R40   R(24,25)                1.3904         estimate D2E/DX2                !
 ! R41   R(24,40)                1.0846         estimate D2E/DX2                !
 ! R42   R(25,28)                1.3905         estimate D2E/DX2                !
 ! R43   R(25,41)                1.086          estimate D2E/DX2                !
 ! R44   R(26,42)                1.0924         estimate D2E/DX2                !
 ! R45   R(26,43)                1.0926         estimate D2E/DX2                !
 ! R46   R(26,44)                1.0927         estimate D2E/DX2                !
 ! R47   R(27,28)                1.3856         estimate D2E/DX2                !
 ! R48   R(27,45)                1.085          estimate D2E/DX2                !
 ! R49   R(28,46)                1.084          estimate D2E/DX2                !
 ! A1    A(11,1,14)            101.1426         estimate D2E/DX2                !
 ! A2    A(4,3,8)              114.2072         estimate D2E/DX2                !
 ! A3    A(4,3,32)             118.1576         estimate D2E/DX2                !
 ! A4    A(8,3,32)             127.6352         estimate D2E/DX2                !
 ! A5    A(3,4,9)              103.3343         estimate D2E/DX2                !
 ! A6    A(21,5,26)            123.4023         estimate D2E/DX2                !
 ! A7    A(21,5,39)            118.8569         estimate D2E/DX2                !
 ! A8    A(26,5,39)            117.696          estimate D2E/DX2                !
 ! A9    A(23,6,27)            115.6116         estimate D2E/DX2                !
 ! A10   A(8,7,9)              104.3507         estimate D2E/DX2                !
 ! A11   A(8,7,12)             119.331          estimate D2E/DX2                !
 ! A12   A(9,7,12)             136.3184         estimate D2E/DX2                !
 ! A13   A(3,8,7)              105.2611         estimate D2E/DX2                !
 ! A14   A(3,8,10)             131.6937         estimate D2E/DX2                !
 ! A15   A(7,8,10)             123.0452         estimate D2E/DX2                !
 ! A16   A(4,9,7)              112.8466         estimate D2E/DX2                !
 ! A17   A(4,9,15)             122.8645         estimate D2E/DX2                !
 ! A18   A(7,9,15)             124.2889         estimate D2E/DX2                !
 ! A19   A(8,10,11)            116.9554         estimate D2E/DX2                !
 ! A20   A(8,10,29)            120.5069         estimate D2E/DX2                !
 ! A21   A(11,10,29)           122.5366         estimate D2E/DX2                !
 ! A22   A(1,11,10)            119.2703         estimate D2E/DX2                !
 ! A23   A(1,11,13)            119.5458         estimate D2E/DX2                !
 ! A24   A(10,11,13)           121.1839         estimate D2E/DX2                !
 ! A25   A(7,12,13)            118.5342         estimate D2E/DX2                !
 ! A26   A(7,12,30)            121.5991         estimate D2E/DX2                !
 ! A27   A(13,12,30)           119.8666         estimate D2E/DX2                !
 ! A28   A(11,13,12)           120.9503         estimate D2E/DX2                !
 ! A29   A(11,13,31)           120.6778         estimate D2E/DX2                !
 ! A30   A(12,13,31)           118.3719         estimate D2E/DX2                !
 ! A31   A(1,14,16)            121.9797         estimate D2E/DX2                !
 ! A32   A(1,14,17)            118.2491         estimate D2E/DX2                !
 ! A33   A(16,14,17)           119.7713         estimate D2E/DX2                !
 ! A34   A(9,15,18)            127.8975         estimate D2E/DX2                !
 ! A35   A(9,15,33)            115.1543         estimate D2E/DX2                !
 ! A36   A(18,15,33)           116.9471         estimate D2E/DX2                !
 ! A37   A(14,16,19)           120.1098         estimate D2E/DX2                !
 ! A38   A(14,16,21)           122.217          estimate D2E/DX2                !
 ! A39   A(19,16,21)           117.6732         estimate D2E/DX2                !
 ! A40   A(14,17,20)           120.1158         estimate D2E/DX2                !
 ! A41   A(14,17,34)           121.4679         estimate D2E/DX2                !
 ! A42   A(20,17,34)           118.4145         estimate D2E/DX2                !
 ! A43   A(15,18,23)           125.2638         estimate D2E/DX2                !
 ! A44   A(15,18,35)           119.1184         estimate D2E/DX2                !
 ! A45   A(23,18,35)           115.6162         estimate D2E/DX2                !
 ! A46   A(16,19,22)           119.9956         estimate D2E/DX2                !
 ! A47   A(16,19,36)           120.7894         estimate D2E/DX2                !
 ! A48   A(22,19,36)           119.2151         estimate D2E/DX2                !
 ! A49   A(17,20,22)           120.0007         estimate D2E/DX2                !
 ! A50   A(17,20,37)           120.0076         estimate D2E/DX2                !
 ! A51   A(22,20,37)           119.9916         estimate D2E/DX2                !
 ! A52   A(2,21,5)             122.8151         estimate D2E/DX2                !
 ! A53   A(2,21,16)            120.336          estimate D2E/DX2                !
 ! A54   A(5,21,16)            116.8395         estimate D2E/DX2                !
 ! A55   A(19,22,20)           120.0068         estimate D2E/DX2                !
 ! A56   A(19,22,38)           119.9995         estimate D2E/DX2                !
 ! A57   A(20,22,38)           119.9937         estimate D2E/DX2                !
 ! A58   A(6,23,18)            115.2305         estimate D2E/DX2                !
 ! A59   A(6,23,24)            125.5229         estimate D2E/DX2                !
 ! A60   A(18,23,24)           119.2465         estimate D2E/DX2                !
 ! A61   A(23,24,25)           117.1824         estimate D2E/DX2                !
 ! A62   A(23,24,40)           122.7218         estimate D2E/DX2                !
 ! A63   A(25,24,40)           120.0958         estimate D2E/DX2                !
 ! A64   A(24,25,28)           119.7433         estimate D2E/DX2                !
 ! A65   A(24,25,41)           120.1377         estimate D2E/DX2                !
 ! A66   A(28,25,41)           120.119          estimate D2E/DX2                !
 ! A67   A(5,26,42)            108.4427         estimate D2E/DX2                !
 ! A68   A(5,26,43)            108.2799         estimate D2E/DX2                !
 ! A69   A(5,26,44)            110.6193         estimate D2E/DX2                !
 ! A70   A(42,26,43)           109.7127         estimate D2E/DX2                !
 ! A71   A(42,26,44)           110.069          estimate D2E/DX2                !
 ! A72   A(43,26,44)           109.683          estimate D2E/DX2                !
 ! A73   A(6,27,28)            124.0355         estimate D2E/DX2                !
 ! A74   A(6,27,45)            115.1776         estimate D2E/DX2                !
 ! A75   A(28,27,45)           120.7869         estimate D2E/DX2                !
 ! A76   A(25,28,27)           117.9043         estimate D2E/DX2                !
 ! A77   A(25,28,46)           121.0077         estimate D2E/DX2                !
 ! A78   A(27,28,46)           121.0881         estimate D2E/DX2                !
 ! D1    D(14,1,11,10)         -59.9931         estimate D2E/DX2                !
 ! D2    D(14,1,11,13)         119.9924         estimate D2E/DX2                !
 ! D3    D(11,1,14,16)         119.996          estimate D2E/DX2                !
 ! D4    D(11,1,14,17)         -60.002          estimate D2E/DX2                !
 ! D5    D(8,3,4,9)             -0.0041         estimate D2E/DX2                !
 ! D6    D(32,3,4,9)           179.9923         estimate D2E/DX2                !
 ! D7    D(4,3,8,7)             -0.0028         estimate D2E/DX2                !
 ! D8    D(4,3,8,10)          -179.994          estimate D2E/DX2                !
 ! D9    D(32,3,8,7)          -179.9988         estimate D2E/DX2                !
 ! D10   D(32,3,8,10)            0.0101         estimate D2E/DX2                !
 ! D11   D(3,4,9,7)              0.0096         estimate D2E/DX2                !
 ! D12   D(3,4,9,15)           179.9799         estimate D2E/DX2                !
 ! D13   D(26,5,21,2)           -0.0037         estimate D2E/DX2                !
 ! D14   D(26,5,21,16)        -178.8862         estimate D2E/DX2                !
 ! D15   D(39,5,21,2)          177.5021         estimate D2E/DX2                !
 ! D16   D(39,5,21,16)          -1.3804         estimate D2E/DX2                !
 ! D17   D(21,5,26,42)        -148.9105         estimate D2E/DX2                !
 ! D18   D(21,5,26,43)          92.1018         estimate D2E/DX2                !
 ! D19   D(21,5,26,44)         -28.1157         estimate D2E/DX2                !
 ! D20   D(39,5,26,42)          33.5566         estimate D2E/DX2                !
 ! D21   D(39,5,26,43)         -85.4311         estimate D2E/DX2                !
 ! D22   D(39,5,26,44)         154.3515         estimate D2E/DX2                !
 ! D23   D(27,6,23,18)        -179.9268         estimate D2E/DX2                !
 ! D24   D(27,6,23,24)          -0.0166         estimate D2E/DX2                !
 ! D25   D(23,6,27,28)           0.0089         estimate D2E/DX2                !
 ! D26   D(23,6,27,45)        -179.999          estimate D2E/DX2                !
 ! D27   D(9,7,8,3)              0.0081         estimate D2E/DX2                !
 ! D28   D(9,7,8,10)          -179.9998         estimate D2E/DX2                !
 ! D29   D(12,7,8,3)          -179.9913         estimate D2E/DX2                !
 ! D30   D(12,7,8,10)            0.0008         estimate D2E/DX2                !
 ! D31   D(8,7,9,4)             -0.0114         estimate D2E/DX2                !
 ! D32   D(8,7,9,15)          -179.9813         estimate D2E/DX2                !
 ! D33   D(12,7,9,4)           179.9878         estimate D2E/DX2                !
 ! D34   D(12,7,9,15)            0.0179         estimate D2E/DX2                !
 ! D35   D(8,7,12,13)            0.0071         estimate D2E/DX2                !
 ! D36   D(8,7,12,30)         -179.9912         estimate D2E/DX2                !
 ! D37   D(9,7,12,13)         -179.9921         estimate D2E/DX2                !
 ! D38   D(9,7,12,30)            0.0096         estimate D2E/DX2                !
 ! D39   D(3,8,10,11)          179.9837         estimate D2E/DX2                !
 ! D40   D(3,8,10,29)            0.3561         estimate D2E/DX2                !
 ! D41   D(7,8,10,11)           -0.0061         estimate D2E/DX2                !
 ! D42   D(7,8,10,29)         -179.6338         estimate D2E/DX2                !
 ! D43   D(4,9,15,18)           -1.4553         estimate D2E/DX2                !
 ! D44   D(4,9,15,33)          178.9326         estimate D2E/DX2                !
 ! D45   D(7,9,15,18)          178.5117         estimate D2E/DX2                !
 ! D46   D(7,9,15,33)           -1.1004         estimate D2E/DX2                !
 ! D47   D(8,10,11,1)          179.9889         estimate D2E/DX2                !
 ! D48   D(8,10,11,13)           0.0036         estimate D2E/DX2                !
 ! D49   D(29,10,11,1)          -0.3916         estimate D2E/DX2                !
 ! D50   D(29,10,11,13)        179.6231         estimate D2E/DX2                !
 ! D51   D(1,11,13,12)        -179.9811         estimate D2E/DX2                !
 ! D52   D(1,11,13,31)          -0.0312         estimate D2E/DX2                !
 ! D53   D(10,11,13,12)          0.0041         estimate D2E/DX2                !
 ! D54   D(10,11,13,31)        179.9541         estimate D2E/DX2                !
 ! D55   D(7,12,13,11)          -0.0095         estimate D2E/DX2                !
 ! D56   D(7,12,13,31)        -179.9606         estimate D2E/DX2                !
 ! D57   D(30,12,13,11)        179.9888         estimate D2E/DX2                !
 ! D58   D(30,12,13,31)          0.0378         estimate D2E/DX2                !
 ! D59   D(1,14,16,19)         179.9868         estimate D2E/DX2                !
 ! D60   D(1,14,16,21)          -0.0044         estimate D2E/DX2                !
 ! D61   D(17,14,16,19)         -0.0152         estimate D2E/DX2                !
 ! D62   D(17,14,16,21)        179.9936         estimate D2E/DX2                !
 ! D63   D(1,14,17,20)        -179.9892         estimate D2E/DX2                !
 ! D64   D(1,14,17,34)          -0.4908         estimate D2E/DX2                !
 ! D65   D(16,14,17,20)          0.0127         estimate D2E/DX2                !
 ! D66   D(16,14,17,34)        179.5111         estimate D2E/DX2                !
 ! D67   D(9,15,18,23)        -179.3851         estimate D2E/DX2                !
 ! D68   D(9,15,18,35)           0.1305         estimate D2E/DX2                !
 ! D69   D(33,15,18,23)          0.221          estimate D2E/DX2                !
 ! D70   D(33,15,18,35)        179.7366         estimate D2E/DX2                !
 ! D71   D(14,16,19,22)          0.0136         estimate D2E/DX2                !
 ! D72   D(14,16,19,36)       -179.9801         estimate D2E/DX2                !
 ! D73   D(21,16,19,22)       -179.9948         estimate D2E/DX2                !
 ! D74   D(21,16,19,36)          0.0115         estimate D2E/DX2                !
 ! D75   D(14,16,21,2)          91.0858         estimate D2E/DX2                !
 ! D76   D(14,16,21,5)         -90.0023         estimate D2E/DX2                !
 ! D77   D(19,16,21,2)         -88.9056         estimate D2E/DX2                !
 ! D78   D(19,16,21,5)          90.0063         estimate D2E/DX2                !
 ! D79   D(14,17,20,22)         -0.0085         estimate D2E/DX2                !
 ! D80   D(14,17,20,37)        179.8865         estimate D2E/DX2                !
 ! D81   D(34,17,20,22)       -179.5221         estimate D2E/DX2                !
 ! D82   D(34,17,20,37)          0.3729         estimate D2E/DX2                !
 ! D83   D(15,18,23,6)          -1.827          estimate D2E/DX2                !
 ! D84   D(15,18,23,24)        178.2567         estimate D2E/DX2                !
 ! D85   D(35,18,23,6)         178.6423         estimate D2E/DX2                !
 ! D86   D(35,18,23,24)         -1.2739         estimate D2E/DX2                !
 ! D87   D(16,19,22,20)         -0.0094         estimate D2E/DX2                !
 ! D88   D(16,19,22,38)       -179.9774         estimate D2E/DX2                !
 ! D89   D(36,19,22,20)        179.9844         estimate D2E/DX2                !
 ! D90   D(36,19,22,38)          0.0164         estimate D2E/DX2                !
 ! D91   D(17,20,22,19)          0.0069         estimate D2E/DX2                !
 ! D92   D(17,20,22,38)        179.9749         estimate D2E/DX2                !
 ! D93   D(37,20,22,19)       -179.8881         estimate D2E/DX2                !
 ! D94   D(37,20,22,38)          0.0798         estimate D2E/DX2                !
 ! D95   D(6,23,24,25)           0.0192         estimate D2E/DX2                !
 ! D96   D(6,23,24,40)        -179.9846         estimate D2E/DX2                !
 ! D97   D(18,23,24,25)        179.9261         estimate D2E/DX2                !
 ! D98   D(18,23,24,40)         -0.0777         estimate D2E/DX2                !
 ! D99   D(23,24,25,28)         -0.0135         estimate D2E/DX2                !
 ! D100  D(23,24,25,41)        179.9985         estimate D2E/DX2                !
 ! D101  D(40,24,25,28)        179.9902         estimate D2E/DX2                !
 ! D102  D(40,24,25,41)          0.0022         estimate D2E/DX2                !
 ! D103  D(24,25,28,27)          0.007          estimate D2E/DX2                !
 ! D104  D(24,25,28,46)       -179.9948         estimate D2E/DX2                !
 ! D105  D(41,25,28,27)        179.995          estimate D2E/DX2                !
 ! D106  D(41,25,28,46)         -0.0068         estimate D2E/DX2                !
 ! D107  D(6,27,28,25)          -0.0047         estimate D2E/DX2                !
 ! D108  D(6,27,28,46)         179.9971         estimate D2E/DX2                !
 ! D109  D(45,27,28,25)       -179.9964         estimate D2E/DX2                !
 ! D110  D(45,27,28,46)          0.0054         estimate D2E/DX2                !
 --------------------------------------------------------------------------------
 Trust Radius=3.00D-01 FncErr=1.00D-07 GrdErr=1.00D-06 EigMax=2.50D+02 EigMin=1.00D-04
 Number of steps in this run=    247 maximum allowed number of steps=    276.
 GradGradGradGradGradGradGradGradGradGradGradGradGradGradGradGradGradGrad

                          Input orientation:                          
 ---------------------------------------------------------------------
 Center     Atomic      Atomic             Coordinates (Angstroms)
 Number     Number       Type             X           Y           Z
 ---------------------------------------------------------------------
      1         16           0       -3.272400    0.426000    1.835600
      2          8           0       -6.623500   -0.794200    1.101500
      3          7           0        0.526000   -1.629600   -1.191100
      4          7           0        1.861600   -1.515700   -1.280800
      5          7           0       -5.137600   -2.026400   -0.183200
      6          7           0        6.050700    0.769700    0.655200
      7          6           0        1.025400   -0.197900    0.393200
      8          6           0       -0.037700   -0.864300   -0.206000
      9          6           0        2.161800   -0.643700   -0.315400
     10          6           0       -1.363800   -0.704100    0.201500
     11          6           0       -1.598800    0.174400    1.264200
     12          6           0        0.773300    0.681400    1.459500
     13          6           0       -0.549900    0.856300    1.883900
     14          6           0       -4.050600    1.057700    0.357200
     15          6           0        3.489700   -0.221600   -0.044300
     16          6           0       -5.127800    0.406400   -0.247700
     17          6           0       -3.554600    2.239400   -0.197500
     18          6           0        4.635100   -0.621800   -0.658200
     19          6           0       -5.706400    0.934700   -1.401800
     20          6           0       -4.133200    2.767600   -1.351600
     21          6           0       -5.688000   -0.830200    0.285900
     22          6           0       -5.208900    2.115300   -1.953700
     23          6           0        5.990800   -0.152600   -0.319600
     24          6           0        7.069900   -0.668400   -0.999400
     25          6           0        8.328500   -0.194500   -0.646500
     26          6           0       -5.599600   -3.331500    0.231800
     27          6           0        7.290400    1.206600    0.970900
     28          6           0        8.449600    0.761000    0.356400
     29          1           0       -2.161000   -1.249400   -0.291700
     30          1           0        1.575400    1.220700    1.953900
     31          1           0       -0.742200    1.538400    2.709500
     32          1           0        0.055100   -2.251200   -1.836700
     33          1           0        3.588900    0.506600    0.758700
     34          1           0       -2.722300    2.773300    0.255000
     35          1           0        4.577300   -1.352000   -1.462800
     36          1           0       -6.545400    0.437100   -1.881500
     37          1           0       -3.747200    3.687800   -1.780500
     38          1           0       -5.659600    2.526900   -2.852100
     39          1           0       -4.398900   -1.986400   -0.879300
     40          1           0        6.968800   -1.413600   -1.781000
     41          1           0        9.213600   -0.568900   -1.152200
     42          1           0       -4.752700   -4.021100    0.209500
     43          1           0       -6.364700   -3.664500   -0.473600
     44          1           0       -6.021400   -3.288100    1.238900
     45          1           0        7.330600    1.951300    1.759000
     46          1           0        9.420600    1.144700    0.647800
 ---------------------------------------------------------------------
                    Distance matrix (angstroms):
                    1          2          3          4          5
     1  S    0.000000
     2  O    3.641107   0.000000
     3  N    5.273921   7.554420   0.000000
     4  N    6.311902   8.842671   1.343446   0.000000
     5  N    3.683584   2.318765   5.766253   7.103122   0.000000
     6  N    9.403811  12.778119   6.299823   5.149729  11.562835
     7  C    4.576118   7.704735   2.192982   2.288690   6.454318
     8  C    4.036866   6.714703   1.368891   2.277467   5.230676
     9  C    5.941514   8.900098   2.101117   1.335103   7.430382
    10  C    2.755025   5.336906   2.523337   3.641306   4.017218
    11  C    1.786264   5.119792   3.714524   4.616041   4.411530
    12  C    4.071163   7.551040   3.525274   3.677076   6.705921
    13  C    2.756719   6.342312   4.097912   4.632175   5.799125
    14  C    1.786143   3.256276   5.528479   6.652784   3.314404
    15  C    7.048362  10.193995   3.475792   2.419574   8.815152
    16  C    2.789809   2.344973   6.082825   7.322122   2.433675
    17  C    2.738896   4.506471   5.710315   6.679037   4.550071
    18  C    8.357361  11.396593   4.264311   2.979763   9.884543
    19  C    4.082143   3.177527   6.742614   7.955735   3.252174
    20  C    4.047507   4.990562   6.408531   7.368127   5.035515
    21  C    3.132847   1.241636   6.436953   7.740860   1.397816
    22  C    4.578489   4.449779   6.891655   7.976774   4.504823
    23  C    9.528197  12.710301   5.727572   4.453340  11.285877
    24  C   10.779523  13.854198   6.616894   5.284268  12.309890
    25  C   11.879677  15.065771   7.952051   6.630890  13.598028
    26  C    4.701791   2.871000   6.514912   7.826531   1.445322
    27  C   10.626843  14.057627   7.646920   6.477109  12.893387
    28  C   11.819710  15.171426   8.419808   7.159995  13.880662
    29  H    2.927043   4.697033   2.858923   4.150969   3.078254
    30  H    4.913930   8.485775   4.372239   4.246537   7.757269
    31  H    2.898801   6.528122   5.182590   5.659487   6.355710
    32  H    5.632534   7.440401   1.012390   2.028159   5.454240
    33  H    6.945765  10.300617   4.212651   3.351540   9.135374
    34  H    2.882833   5.353782   5.659345   6.462688   5.390994
    35  H    8.698190  11.504116   4.069879   2.726710   9.821989
    36  H    4.952725   3.228078   7.399500   8.651700   3.306804
    37  H    4.892949   6.055357   6.847070   7.667121   6.093986
    38  H    5.664542   5.252596   7.635251   8.682168   5.303589
    39  H    3.802546   3.208388   4.947642   6.290995   1.015792
    40  H   11.015721  13.908382   6.473354   5.132652  12.226750
    41  H   12.876994  15.998239   8.752199   7.413830  14.457531
    42  H    4.961067   3.835158   5.962015   7.228208   2.069104
    43  H    5.623781   3.284287   7.220621   8.540546   2.067239
    44  H    4.659141   2.569230   7.178020   8.463568   2.096511
    45  H   10.712423  14.236818   8.235807   7.153351  13.230656
    46  H   12.768698  16.167199   9.496958   8.242312  14.922722
                    6          7          8          9         10
     6  N    0.000000
     7  C    5.124308   0.000000
     8  C    6.362408   1.390436   0.000000
     9  C    4.250095   1.411473   2.213240   0.000000
    10  C    7.573159   2.449748   1.396518   3.563803   0.000000
    11  C    7.696760   2.789924   2.382734   4.160113   1.398685
    12  C    5.339068   1.404891   2.412633   2.614210   2.840664
    13  C    6.714546   2.411451   2.755085   3.800031   2.434697
    14  C   10.109798   5.229111   4.484935   6.476192   3.216687
    15  C    2.833848   2.502947   3.589117   1.419501   4.883614
    16  C   11.220788   6.215931   5.246478   7.365159   3.950024
    17  C    9.754430   5.221662   4.690588   6.403389   3.690935
    18  C    2.380171   3.783526   4.700888   2.497039   6.060747
    19  C   11.936828   7.058466   6.066341   8.098159   4.910643
    20  C   10.570273   6.200780   5.592514   7.234480   4.704721
    21  C   11.852980   6.743964   5.671774   7.875005   4.326861
    22  C   11.635961   7.051619   6.218825   8.038864   5.232466
    23  C    1.343302   5.016506   6.071428   3.860368   7.393635
    24  C    2.417561   6.220666   7.154428   4.955594   8.518846
    25  C    2.795081   7.376738   8.404521   6.191898   9.742663
    26  C   12.358341   7.330493   6.100285   8.231830   4.984591
    27  C    1.351815   6.446440   7.705503   5.601849   8.895950
    28  C    2.417453   7.485959   8.659801   6.477725   9.923373
    29  H    8.509136   3.424600   2.159641   4.365093   1.084494
    30  H    4.681702   2.179612   3.408003   2.994925   3.926150
    31  H    7.138245   3.391813   3.843101   4.727028   3.421295
    32  H    7.161189   3.182762   2.142729   3.055584   2.925928
    33  H    2.477982   2.683550   3.995277   2.124499   5.128889
    34  H    9.007780   4.784599   4.544418   5.987961   3.733724
    35  H    3.340425   4.170453   4.807871   2.766380   6.203736
    36  H   12.853295   7.930605   6.844786   8.912695   5.700018
    37  H   10.509367   6.526971   6.079560   7.471592   5.375659
    38  H   12.349900   7.914906   7.078689   8.812596   6.182049
    39  H   10.915352   5.851583   4.553296   6.720388   3.467601
    40  H    3.397761   6.444306   7.202319   5.084091   8.594528
    41  H    3.881041   8.341014   9.304252   7.101670  10.664529
    42  H   11.826405   6.930876   5.689398   7.713149   4.742067
    43  H   13.231722   8.208668   6.924136   9.047180   5.850532
    44  H   12.749198   7.740926   6.615679   8.739191   5.426462
    45  H    2.062207   6.800001   8.129002   6.144400   9.223315
    46  H    3.390709   8.505691   9.706930   7.537659  10.950823
                   11         12         13         14         15
    11  C    0.000000
    12  C    2.433526   0.000000
    13  C    1.396140   1.400558   0.000000
    14  C    2.759382   4.962527   3.824431   0.000000
    15  C    5.268949   3.233520   4.604149   7.658586   0.000000
    16  C    3.846233   6.149239   5.069842   1.396587   8.642746
    17  C    3.197803   4.889144   3.908122   1.396468   7.463388
    18  C    6.571991   4.593091   5.960812   8.904670   1.359770
    19  C    4.955602   7.087857   6.114856   2.418860   9.367395
    20  C    4.471049   6.027293   5.192453   2.418797   8.291740
    21  C    4.322944   6.738744   5.638968   2.500066   9.203782
    22  C    5.211026   7.035106   6.165917   2.792926   9.207201
    23  C    7.759986   5.575218   6.975245  10.136696   2.517152
    24  C    8.998920   6.893136   8.288515  11.335136   3.732248
    25  C   10.116232   7.891989   9.291560  12.482689   4.876204
    26  C    5.418818   7.630496   6.765100   4.656200   9.610571
    27  C    8.953733   6.556459   7.901049  11.358569   4.185177
    28  C   10.106362   7.755562   9.128710  12.503721   5.072147
    29  H    2.182682   3.924896   3.429701   3.051945   5.748738
    30  H    3.412620   1.085652   2.157449   5.850461   3.120509
    31  H    2.164059   2.143289   1.088051   4.087774   5.346961
    32  H    4.270188   4.469999   4.885227   5.711286   4.373608
    33  H    5.222846   2.906764   4.303258   7.669868   1.088543
    34  H    3.005831   4.248068   3.323782   2.172121   6.902749
    35  H    6.921751   5.210083   6.508853   9.141100   2.114904
    36  H    5.867989   8.048934   7.092248   3.408951  10.223132
    37  H    5.121504   6.322259   5.627428   3.402828   8.406576
    38  H    6.242458   7.961028   7.164470   3.879051   9.957293
    39  H    4.135724   6.272065   5.525488   3.304057   8.126608
    40  H    9.230317   7.298910   8.666879  11.493755   4.067079
    41  H   11.104030   8.923166  10.323518  13.448536   5.840470
    42  H    5.353662   7.362926   6.652531   5.129227   9.079525
    43  H    6.361675   8.577573   7.733520   5.323952  10.447347
    44  H    5.616844   7.872328   6.894156   4.852569  10.075269
    45  H    9.117916   6.685845   7.957192  11.501968   4.767169
    46  H   11.079197   8.697661  10.050970  13.474615   6.125468
                   16         17         18         19         20
    16  C    0.000000
    17  C    2.416064   0.000000
    18  C    9.825473   8.687341   0.000000
    19  C    1.394929   2.789771  10.484382   0.000000
    20  C    2.789819   1.394891   9.426130   2.415989   0.000000
    21  C    1.458675   3.769286  10.368276   2.442036   4.247702
    22  C    2.416061   2.415853  10.299241   1.394961   1.394686
    23  C   11.132875   9.841302   1.474015  11.797367  10.587161
    24  C   12.268013  11.044381   2.459032  12.882767  11.723463
    25  C   13.475612  12.138103   3.718054  14.100496  12.828296
    26  C    3.797948   5.949895  10.624672   4.569521   6.469660
    27  C   12.503479  10.956544   3.612151  13.214403  11.761350
    28  C   13.595458  12.107572   4.182339  14.265825  12.855760
    29  H    3.397869   3.758021   6.834850   4.309580   4.598831
    30  H    7.102325   5.655367   4.424888   8.022913   6.775496
    31  H    5.409246   4.105075   6.702479   6.473834   5.431606
    32  H    6.037401   5.990192   5.002020   6.598028   6.554810
    33  H    8.775177   7.412591   2.091752   9.552677   8.318432
    34  H    3.411943   1.087441   8.154261   3.876892   2.138185
    35  H    9.937676   8.979250   1.088078  10.535046   9.636196
    36  H    2.163293   3.876729  11.296960   1.087032   3.395693
    37  H    3.875967   2.154262   9.491847   3.400211   1.086149
    38  H    3.400328   3.400086  10.986736   2.154219   2.153911
    39  H    2.579865   4.362921   9.139156   3.242744   4.784786
    40  H   12.328469  11.251392   2.708096  12.896472  11.871024
    41  H   14.402954  13.108201   4.605377  14.997650  13.758963
    42  H    4.466821   6.387093  10.021923   5.297715   6.993373
    43  H    4.260655   6.544381  11.414364   4.737885   6.864575
    44  H    4.081401   6.221061  11.147607   4.990447   6.851824
    45  H   12.713194  11.063384   4.441781  13.453160  11.906338
    46  H   14.594621  13.048705   5.265659  15.266666  13.796264
                   21         22         23         24         25
    21  C    0.000000
    22  C    3.731128   0.000000
    23  C   11.714100  11.543264   0.000000
    24  C   12.823501  12.626504   1.375731   0.000000
    25  C   14.061855  13.795113   2.360818   1.390393   0.000000
    26  C    2.503446   5.881895  12.031077  13.004775  14.303991
    27  C   13.155100  12.869014   2.280740   2.728796   2.378385
    28  C   14.227038  13.918524   2.708752   2.405192   1.390487
    29  H    3.598483   4.834578   8.225302   9.276202  10.548379
    30  H    7.729514   7.880125   5.152719   6.517684   7.373549
    31  H    5.995418   6.483028   7.574181   8.924954   9.825644
    32  H    6.285529   6.840300   6.475975   7.239734   8.607888
    33  H    9.384639   9.345925   2.714111   4.072948   4.992989
    34  H    4.667070   3.390354   9.209189  10.454951  11.477836
    35  H   10.426246  10.393886   2.177946   2.625853   4.009695
    36  H    2.653075   2.146579  12.646881  13.688558  14.938442
    37  H    5.333764   2.153908  10.569368  11.687440  12.735020
    38  H    4.595429   1.086125  12.219865  13.254532  14.420043
    39  H    2.087168   4.316756  10.565129  11.544909  12.855031
    40  H   12.837719  12.679879   2.163861   1.084639   2.149902
    41  H   14.973112  14.692033   3.354544   2.151441   1.085960
    42  H    3.326029   6.522496  11.431012  12.348114  13.656259
    43  H    3.011315   6.077225  12.845837  13.774671  15.098375
    44  H    2.657186   6.328474  12.512123  13.537169  14.800160
    45  H   13.393682  13.078612   3.246850   3.813078   3.374417
    46  H   15.241424  14.890673   3.792411   3.395054   2.159016
                   26         27         28         29         30
    26  C    0.000000
    27  C   13.685493   0.000000
    28  C   14.633663   1.385610   0.000000
    29  H    4.053784   9.846576  10.818807   0.000000
    30  H    8.669993   5.798941   7.072337   5.010469   0.000000
    31  H    7.310900   8.225295   9.520011   4.334977   2.458279
    32  H    6.117301   8.496385   9.184262   2.881272   5.360415
    33  H    9.971819   3.773080   4.883950   6.103132   2.447984
    34  H    6.748924  10.159785  11.352136   4.098299   4.875146
    35  H   10.505207   4.453116   4.771684   6.840080   5.225326
    36  H    4.422999  14.147709  15.164535   4.959305   9.015083
    37  H    7.533347  11.642816  12.723774   5.395229   6.954308
    38  H    6.620792  13.566909  14.576776   5.749460   8.783451
    39  H    2.117904  12.257986  13.196936   2.428300   7.348794
    40  H   12.872233   3.813375   3.389710   9.251931   7.069496
    41  H   15.132029   3.370260   2.151326  11.427382   8.437572
    42  H    1.092376  13.150849  14.042464   3.827588   8.400253
    43  H    1.092637  14.569693  15.483457   4.851483   9.633438
    44  H    1.092726  14.052693  15.052703   4.626200   8.862949
    45  H   14.050992   1.085033   2.153198  10.224496   5.804661
    46  H   15.678515   2.155453   1.083965  11.863719   7.953542
                   31         32         33         34         35
    31  H    0.000000
    32  H    5.971992   0.000000
    33  H    4.860932   5.179701   0.000000
    34  H    3.386790   6.110218   6.724797   0.000000
    35  H    7.352522   4.625868   3.060456   8.558802   0.000000
    36  H    7.481128   7.127101  10.472799   4.963724  11.273449
    37  H    5.814641   7.052118   8.389632   2.455604   9.736417
    38  H    7.489282   7.517917  10.131843   4.282816  11.034951
    39  H    6.218935   4.563425   8.526608   5.172269   9.017489
    40  H    9.398852   6.964476   4.643379  10.751411   2.413362
    41  H   10.884457   9.336851   6.037010  12.474623   4.712218
    42  H    7.296722   5.516740   9.507049   7.091436   9.847313
    43  H    8.295469   6.713367  10.862357   7.432577  11.227357
    44  H    7.302583   6.889001  10.343510   6.970846  11.107660
    45  H    8.139044   9.139090   4.133773  10.197965   5.373309
    46  H   10.377288  10.267301   5.867554  12.257922   5.843432
                   36         37         38         39         40
    36  H    0.000000
    37  H    4.290358   0.000000
    38  H    2.468597   2.480582   0.000000
    39  H    3.388985   5.782164   5.084406   0.000000
    40  H   13.640704  11.868317  13.272200  11.417783   0.000000
    41  H   15.807909  13.656376  15.286782  13.688825   2.479523
    42  H    5.240382   8.024853   7.285065   2.334666  12.171882
    43  H    4.340272   7.913003   6.669922   2.616292  13.585215
    44  H    4.887595   7.934226   7.119087   2.968788  13.467696
    45  H   14.425305  11.758450  13.796335  12.650979   4.897454
    46  H   16.180581  13.629195  15.542593  14.251821   4.295962
                   41         42         43         44         45
    41  H    0.000000
    42  H   14.450932   0.000000
    43  H   15.897379   1.786710   0.000000
    44  H   15.659394   1.790685   1.786670   0.000000
    45  H    4.286278  13.567485  14.969401  14.352621   0.000000
    46  H    2.493847  15.091721  16.539699  16.076519   2.500694
                   46
    46  H    0.000000
 Stoichiometry    C22H18N4OS
 Framework group  C1[X(C22H18N4OS)]
 Deg. of freedom   132
 Full point group                 C1      NOp   1
 Largest Abelian subgroup         C1      NOp   1
 Largest concise Abelian subgroup C1      NOp   1
                         Standard orientation:                         
 ---------------------------------------------------------------------
 Center     Atomic      Atomic             Coordinates (Angstroms)
 Number     Number       Type             X           Y           Z
 ---------------------------------------------------------------------
      1         16           0       -3.071151   -0.683729   -1.670662
      2          8           0       -6.428453    0.578199   -1.043189
      3          7           0        0.733336    1.741562    1.060288
      4          7           0        2.070956    1.652132    1.147599
      5          7           0       -4.944022    1.963679    0.076443
      6          7           0        6.266391   -0.796439   -0.561940
      7          6           0        1.233292    0.143840   -0.356222
      8          6           0        0.168668    0.863371    0.174966
      9          6           0        2.371490    0.678922    0.284441
     10          6           0       -1.159478    0.644395   -0.196974
     11          6           0       -1.394966   -0.351769   -1.150138
     12          6           0        0.980679   -0.853701   -1.312682
     13          6           0       -0.344567   -1.089177   -1.699771
     14          6           0       -3.827590   -1.150753   -0.121470
     15          6           0        3.701348    0.242139    0.048474
     16          6           0       -4.906086   -0.445715    0.417255
     17          6           0       -3.312834   -2.256500    0.558583
     18          6           0        4.848130    0.721224    0.600148
     19          6           0       -5.467304   -0.844940    1.630300
     20          6           0       -3.874053   -2.655625    1.771617
     21          6           0       -5.485448    0.716326   -0.247374
     22          6           0       -4.951088   -1.949898    2.307430
     23          6           0        6.205654    0.230242    0.302176
     24          6           0        7.285484    0.831005    0.906895
     25          6           0        8.545831    0.332743    0.596326
     26          6           0       -5.424803    3.208273   -0.479244
     27          6           0        7.507788   -1.253898   -0.839555
     28          6           0        8.667861   -0.729502   -0.292605
     29          1           0       -1.957905    1.234235    0.239751
     30          1           0        1.783926   -1.437669   -1.751336
     31          1           0       -0.537250   -1.862789   -2.440212
     32          1           0        0.261808    2.427861    1.636124
     33          1           0        3.800876   -0.571749   -0.667490
     34          1           0       -2.479039   -2.830025    0.160606
     35          1           0        4.789991    1.537700    1.317017
     36          1           0       -6.307120   -0.304446    2.059504
     37          1           0       -3.473477   -3.517030    2.298153
     38          1           0       -5.388253   -2.261021    3.251759
     39          1           0       -4.198110    2.010702    0.764366
     40          1           0        7.183654    1.659325    1.599687
     41          1           0        9.431570    0.771241    1.046321
     42          1           0       -4.585575    3.904454   -0.544924
     43          1           0       -6.186648    3.611703    0.192094
     44          1           0       -5.855965    3.046176   -1.470139
     45          1           0        7.548656   -2.083077   -1.538188
     46          1           0        9.640225   -1.134059   -0.549163
 ---------------------------------------------------------------------
 Rotational constants (GHZ):           0.4487437           0.0550663           0.0535770
 Standard basis: 6-311++G(d,p) (5D, 7F)
 There are   778 symmetry adapted cartesian basis functions of A   symmetry.
 There are   750 symmetry adapted basis functions of A   symmetry.
   750 basis functions,  1184 primitive gaussians,   778 cartesian basis functions
   101 alpha electrons      101 beta electrons
       nuclear repulsion energy      2415.2538267616 Hartrees.
 NAtoms=   46 NActive=   46 NUniq=   46 SFac= 1.00D+00 NAtFMM=   60 NAOKFM=F Big=F
 Integral buffers will be    131072 words long.
 Raffenetti 2 integral format.
 Two-electron integral symmetry is turned on.
 ------------------------------------------------------------------------------
 Polarizable Continuum Model (PCM)
 =================================
 Model                : PCM.
 Atomic radii         : UFF (Universal Force Field).
 Polarization charges : Total charges.
 Charge compensation  : None.
 Solution method      : On-the-fly selection.
 Cavity type          : Scaled VdW (van der Waals Surface) (Alpha=1.100).
 Cavity algorithm     : GePol (No added spheres)
                        Default sphere list used, NSphG=   46.
                        Lebedev-Laikov grids with approx.  5.0 points / Ang**2.
                        Smoothing algorithm: York/Karplus (Gamma=1.0000).
                        Polarization charges: spherical gaussians, with
                                              point-specific exponents (IZeta= 3).
                        Self-potential: point-specific (ISelfS= 7).
                        Self-field    : sphere-specific E.n sum rule (ISelfD= 2).
 1st derivatives      : Analytical E(r).r(x)/FMM algorithm (CHGder, D1EAlg=3).
                        Cavity 1st derivative terms included.
 Solvent              : Water, Eps=  78.355300 Eps(inf)=   1.777849
 ------------------------------------------------------------------------------
 One-electron integrals computed using PRISM.
 NBasis=   750 RedAO= T EigKep=  1.49D-06  NBF=   750
 NBsUse=   741 1.00D-06 EigRej=  9.10D-07 NBFU=   741
 ExpMin= 3.60D-02 ExpMax= 9.34D+04 ExpMxC= 3.17D+03 IAcc=3 IRadAn=         5 AccDes= 0.00D+00
 Harris functional with IExCor=  402 and IRadAn=       5 diagonalized for initial guess.
 HarFok:  IExCor=  402 AccDes= 0.00D+00 IRadAn=         5 IDoV= 1 UseB2=F ITyADJ=14
 ICtDFT=  3500011 ScaDFX=  1.000000  1.000000  1.000000  1.000000
 FoFCou: FMM=F IPFlag=           0 FMFlag=      100000 FMFlg1=           0
         NFxFlg=           0 DoJE=T BraDBF=F KetDBF=T FulRan=T
         wScrn=  0.000000 ICntrl=       500 IOpCl=  0 I1Cent=   200000004 NGrid=           0
         NMat0=    1 NMatS0=      1 NMatT0=    0 NMatD0=    1 NMtDS0=    0 NMtDT0=    0
 Petite list used in FoFCou.
 Requested convergence on RMS density matrix=1.00D-08 within 128 cycles.
 Requested convergence on MAX density matrix=1.00D-06.
 Requested convergence on             energy=1.00D-06.
 No special actions if energy rises.
 Inv3:  Mode=1 IEnd=    40560987.
 Iteration    1 A*A^-1 deviation from unit magnitude is 7.44D-15 for   3666.
 Iteration    1 A*A^-1 deviation from orthogonality  is 3.08D-15 for   3655   3583.
 Iteration    1 A^-1*A deviation from unit magnitude is 7.66D-15 for   3666.
 Iteration    1 A^-1*A deviation from orthogonality  is 2.82D-14 for   3675   3634.
 Error on total polarization charges =  0.02450
 SCF Done:  E(RB3LYP) =  -1541.92268413     A.U. after   16 cycles
            NFock= 16  Conv=0.52D-08     -V/T= 2.0034

 **********************************************************************

            Population analysis using the SCF Density.

 **********************************************************************

 Orbital symmetries:
       Occupied  (A) (A) (A) (A) (A) (A) (A) (A) (A) (A) (A) (A)
                 (A) (A) (A) (A) (A) (A) (A) (A) (A) (A) (A) (A)
                 (A) (A) (A) (A) (A) (A) (A) (A) (A) (A) (A) (A)
                 (A) (A) (A) (A) (A) (A) (A) (A) (A) (A) (A) (A)
                 (A) (A) (A) (A) (A) (A) (A) (A) (A) (A) (A) (A)
                 (A) (A) (A) (A) (A) (A) (A) (A) (A) (A) (A) (A)
                 (A) (A) (A) (A) (A) (A) (A) (A) (A) (A) (A) (A)
                 (A) (A) (A) (A) (A) (A) (A) (A) (A) (A) (A) (A)
                 (A) (A) (A) (A) (A)
       Virtual   (A) (A) (A) (A) (A) (A) (A) (A) (A) (A) (A) (A)
                 (A) (A) (A) (A) (A) (A) (A) (A) (A) (A) (A) (A)
                 (A) (A) (A) (A) (A) (A) (A) (A) (A) (A) (A) (A)
                 (A) (A) (A) (A) (A) (A) (A) (A) (A) (A) (A) (A)
                 (A) (A) (A) (A) (A) (A) (A) (A) (A) (A) (A) (A)
                 (A) (A) (A) (A) (A) (A) (A) (A) (A) (A) (A) (A)
                 (A) (A) (A) (A) (A) (A) (A) (A) (A) (A) (A) (A)
                 (A) (A) (A) (A) (A) (A) (A) (A) (A) (A) (A) (A)
                 (A) (A) (A) (A) (A) (A) (A) (A) (A) (A) (A) (A)
                 (A) (A) (A) (A) (A) (A) (A) (A) (A) (A) (A) (A)
                 (A) (A) (A) (A) (A) (A) (A) (A) (A) (A) (A) (A)
                 (A) (A) (A) (A) (A) (A) (A) (A) (A) (A) (A) (A)
                 (A) (A) (A) (A) (A) (A) (A) (A) (A) (A) (A) (A)
                 (A) (A) (A) (A) (A) (A) (A) (A) (A) (A) (A) (A)
                 (A) (A) (A) (A) (A) (A) (A) (A) (A) (A) (A) (A)
                 (A) (A) (A) (A) (A) (A) (A) (A) (A) (A) (A) (A)
                 (A) (A) (A) (A) (A) (A) (A) (A) (A) (A) (A) (A)
                 (A) (A) (A) (A) (A) (A) (A) (A) (A) (A) (A) (A)
                 (A) (A) (A) (A) (A) (A) (A) (A) (A) (A) (A) (A)
                 (A) (A) (A) (A) (A) (A) (A) (A) (A) (A) (A) (A)
                 (A) (A) (A) (A) (A) (A) (A) (A) (A) (A) (A) (A)
                 (A) (A) (A) (A) (A) (A) (A) (A) (A) (A) (A) (A)
                 (A) (A) (A) (A) (A) (A) (A) (A) (A) (A) (A) (A)
                 (A) (A) (A) (A) (A) (A) (A) (A) (A) (A) (A) (A)
                 (A) (A) (A) (A) (A) (A) (A) (A) (A) (A) (A) (A)
                 (A) (A) (A) (A) (A) (A) (A) (A) (A) (A) (A) (A)
                 (A) (A) (A) (A) (A) (A) (A) (A) (A) (A) (A) (A)
                 (A) (A) (A) (A) (A) (A) (A) (A) (A) (A) (A) (A)
                 (A) (A) (A) (A) (A) (A) (A) (A) (A) (A) (A) (A)
                 (A) (A) (A) (A) (A) (A) (A) (A) (A) (A) (A) (A)
                 (A) (A) (A) (A) (A) (A) (A) (A) (A) (A) (A) (A)
                 (A) (A) (A) (A) (A) (A) (A) (A) (A) (A) (A) (A)
                 (A) (A) (A) (A) (A) (A) (A) (A) (A) (A) (A) (A)
                 (A) (A) (A) (A) (A) (A) (A) (A) (A) (A) (A) (A)
                 (A) (A) (A) (A) (A) (A) (A) (A) (A) (A) (A) (A)
                 (A) (A) (A) (A) (A) (A) (A) (A) (A) (A) (A) (A)
                 (A) (A) (A) (A) (A) (A) (A) (A) (A) (A) (A) (A)
                 (A) (A) (A) (A) (A) (A) (A) (A) (A) (A) (A) (A)
                 (A) (A) (A) (A) (A) (A) (A) (A) (A) (A) (A) (A)
                 (A) (A) (A) (A) (A) (A) (A) (A) (A) (A) (A) (A)
                 (A) (A) (A) (A) (A) (A) (A) (A) (A) (A) (A) (A)
                 (A) (A) (A) (A) (A) (A) (A) (A) (A) (A) (A) (A)
                 (A) (A) (A) (A) (A) (A) (A) (A) (A) (A) (A) (A)
                 (A) (A) (A) (A) (A) (A) (A) (A) (A) (A) (A) (A)
                 (A) (A) (A) (A) (A) (A) (A) (A) (A) (A) (A) (A)
                 (A) (A) (A) (A) (A) (A) (A) (A) (A) (A) (A) (A)
                 (A) (A) (A) (A) (A) (A) (A) (A) (A) (A) (A) (A)
                 (A) (A) (A) (A) (A) (A) (A) (A) (A) (A) (A) (A)
                 (A) (A) (A) (A) (A) (A) (A) (A) (A) (A) (A) (A)
                 (A) (A) (A) (A) (A) (A) (A) (A) (A) (A) (A) (A)
                 (A) (A) (A) (A) (A) (A) (A) (A) (A) (A) (A) (A)
                 (A) (A) (A) (A) (A) (A) (A) (A) (A) (A) (A) (A)
                 (A) (A) (A) (A) (A) (A) (A) (A) (A) (A) (A) (A)
                 (A) (A) (A) (A)
 The electronic state is 1-A.
 Alpha  occ. eigenvalues --  -88.86441 -19.11031 -14.39656 -14.35742 -14.35303
 Alpha  occ. eigenvalues --  -14.32021 -10.29393 -10.22910 -10.22577 -10.22496
 Alpha  occ. eigenvalues --  -10.22241 -10.21650 -10.21237 -10.20581 -10.20437
 Alpha  occ. eigenvalues --  -10.20071 -10.19918 -10.19796 -10.19583 -10.19411
 Alpha  occ. eigenvalues --  -10.19215 -10.19124 -10.19069 -10.19040 -10.18743
 Alpha  occ. eigenvalues --  -10.18679 -10.18503 -10.18248  -7.95102  -5.91504
 Alpha  occ. eigenvalues --   -5.91116  -5.90466  -1.07049  -1.05020  -0.95712
 Alpha  occ. eigenvalues --   -0.93020  -0.89311  -0.88161  -0.85668  -0.82139
 Alpha  occ. eigenvalues --   -0.81628  -0.80419  -0.78873  -0.78020  -0.76490
 Alpha  occ. eigenvalues --   -0.74851  -0.72361  -0.70944  -0.67156  -0.65848
 Alpha  occ. eigenvalues --   -0.64473  -0.64160  -0.63015  -0.61184  -0.60519
 Alpha  occ. eigenvalues --   -0.58942  -0.56203  -0.55448  -0.54972  -0.53050
 Alpha  occ. eigenvalues --   -0.51650  -0.50346  -0.49765  -0.49102  -0.48195
 Alpha  occ. eigenvalues --   -0.47773  -0.47540  -0.47152  -0.46046  -0.45763
 Alpha  occ. eigenvalues --   -0.45368  -0.45234  -0.44708  -0.43463  -0.43221
 Alpha  occ. eigenvalues --   -0.41920  -0.41702  -0.40601  -0.40314  -0.39630
 Alpha  occ. eigenvalues --   -0.38993  -0.38669  -0.38197  -0.37744  -0.37536
 Alpha  occ. eigenvalues --   -0.36665  -0.35884  -0.34387  -0.34211  -0.32572
 Alpha  occ. eigenvalues --   -0.30663  -0.29579  -0.29289  -0.29072  -0.28002
 Alpha  occ. eigenvalues --   -0.27573  -0.26865  -0.26689  -0.26342  -0.23785
 Alpha  occ. eigenvalues --   -0.21535
 Alpha virt. eigenvalues --   -0.08079  -0.05466  -0.04315  -0.03728  -0.03507
 Alpha virt. eigenvalues --   -0.01211  -0.01010  -0.00647  -0.00465   0.00151
 Alpha virt. eigenvalues --    0.00418   0.00622   0.00748   0.01326   0.01792
 Alpha virt. eigenvalues --    0.02014   0.02289   0.02471   0.03192   0.03275
 Alpha virt. eigenvalues --    0.03658   0.04248   0.04413   0.04547   0.04833
 Alpha virt. eigenvalues --    0.04995   0.05300   0.05350   0.06133   0.06311
 Alpha virt. eigenvalues --    0.06599   0.06944   0.07300   0.07551   0.07596
 Alpha virt. eigenvalues --    0.07971   0.08532   0.08811   0.09116   0.09364
 Alpha virt. eigenvalues --    0.09513   0.09846   0.10242   0.10355   0.10600
 Alpha virt. eigenvalues --    0.10807   0.10981   0.11092   0.11398   0.11430
 Alpha virt. eigenvalues --    0.11682   0.11861   0.11964   0.12227   0.12368
 Alpha virt. eigenvalues --    0.12468   0.12532   0.12612   0.13089   0.13180
 Alpha virt. eigenvalues --    0.13415   0.13473   0.13772   0.13805   0.14101
 Alpha virt. eigenvalues --    0.14264   0.14504   0.14593   0.14848   0.15146
 Alpha virt. eigenvalues --    0.15407   0.15560   0.15980   0.16258   0.16627
 Alpha virt. eigenvalues --    0.16695   0.16950   0.17025   0.17337   0.17528
 Alpha virt. eigenvalues --    0.17678   0.17743   0.17967   0.18055   0.18333
 Alpha virt. eigenvalues --    0.18617   0.18834   0.19018   0.19378   0.19558
 Alpha virt. eigenvalues --    0.19698   0.19766   0.20214   0.20522   0.20850
 Alpha virt. eigenvalues --    0.21138   0.21394   0.21648   0.21950   0.22182
 Alpha virt. eigenvalues --    0.22285   0.22536   0.22908   0.23272   0.23423
 Alpha virt. eigenvalues --    0.23787   0.23925   0.24055   0.24474   0.24499
 Alpha virt. eigenvalues --    0.24796   0.24843   0.25050   0.25428   0.25835
 Alpha virt. eigenvalues --    0.26036   0.26359   0.26465   0.26806   0.27001
 Alpha virt. eigenvalues --    0.27296   0.27745   0.27831   0.27955   0.28308
 Alpha virt. eigenvalues --    0.28435   0.28601   0.28752   0.28958   0.29210
 Alpha virt. eigenvalues --    0.29497   0.29643   0.30227   0.30340   0.30530
 Alpha virt. eigenvalues --    0.30649   0.30883   0.31013   0.31322   0.31430
 Alpha virt. eigenvalues --    0.31699   0.32284   0.32508   0.32815   0.32950
 Alpha virt. eigenvalues --    0.33468   0.33691   0.34175   0.34420   0.34601
 Alpha virt. eigenvalues --    0.35330   0.35627   0.36053   0.36478   0.36535
 Alpha virt. eigenvalues --    0.36792   0.37323   0.37566   0.38042   0.38402
 Alpha virt. eigenvalues --    0.38917   0.39300   0.39778   0.40572   0.41292
 Alpha virt. eigenvalues --    0.41676   0.42171   0.42193   0.43097   0.44117
 Alpha virt. eigenvalues --    0.44601   0.44847   0.45344   0.46374   0.47397
 Alpha virt. eigenvalues --    0.47899   0.49061   0.50477   0.50729   0.50895
 Alpha virt. eigenvalues --    0.51099   0.51401   0.52547   0.52628   0.53104
 Alpha virt. eigenvalues --    0.53197   0.54046   0.54240   0.54650   0.54828
 Alpha virt. eigenvalues --    0.55118   0.55394   0.56033   0.56265   0.56451
 Alpha virt. eigenvalues --    0.56642   0.57700   0.57965   0.58389   0.58703
 Alpha virt. eigenvalues --    0.59243   0.59487   0.59982   0.60259   0.60493
 Alpha virt. eigenvalues --    0.60744   0.61189   0.61540   0.62145   0.62292
 Alpha virt. eigenvalues --    0.62712   0.63112   0.63797   0.64244   0.64857
 Alpha virt. eigenvalues --    0.65166   0.65306   0.65960   0.66593   0.67498
 Alpha virt. eigenvalues --    0.67701   0.67943   0.68507   0.68905   0.69237
 Alpha virt. eigenvalues --    0.69566   0.70359   0.71131   0.71547   0.71806
 Alpha virt. eigenvalues --    0.72414   0.73200   0.73434   0.73727   0.73980
 Alpha virt. eigenvalues --    0.74512   0.74823   0.75351   0.75802   0.75900
 Alpha virt. eigenvalues --    0.76360   0.76470   0.76879   0.77543   0.78111
 Alpha virt. eigenvalues --    0.79031   0.79256   0.79757   0.81005   0.81262
 Alpha virt. eigenvalues --    0.82106   0.82393   0.83034   0.83743   0.84435
 Alpha virt. eigenvalues --    0.84920   0.85018   0.85272   0.85827   0.86112
 Alpha virt. eigenvalues --    0.86589   0.86882   0.87272   0.87447   0.88296
 Alpha virt. eigenvalues --    0.88481   0.89173   0.89346   0.89983   0.90093
 Alpha virt. eigenvalues --    0.90840   0.91100   0.91707   0.92033   0.92815
 Alpha virt. eigenvalues --    0.92879   0.93754   0.94686   0.95316   0.95804
 Alpha virt. eigenvalues --    0.96097   0.96580   0.96823   0.97319   0.97944
 Alpha virt. eigenvalues --    0.98367   0.98670   0.99069   1.00240   1.00547
 Alpha virt. eigenvalues --    1.01140   1.01759   1.02140   1.02755   1.03133
 Alpha virt. eigenvalues --    1.03763   1.04289   1.05062   1.05866   1.05894
 Alpha virt. eigenvalues --    1.06130   1.06446   1.07354   1.08498   1.08564
 Alpha virt. eigenvalues --    1.09481   1.10092   1.10463   1.10906   1.12037
 Alpha virt. eigenvalues --    1.12500   1.13570   1.14076   1.14559   1.15016
 Alpha virt. eigenvalues --    1.17017   1.17993   1.18663   1.19033   1.20612
 Alpha virt. eigenvalues --    1.21053   1.22123   1.22936   1.25508   1.26353
 Alpha virt. eigenvalues --    1.27019   1.27570   1.28376   1.29055   1.30296
 Alpha virt. eigenvalues --    1.30902   1.32620   1.33533   1.34802   1.35887
 Alpha virt. eigenvalues --    1.37425   1.37621   1.40066   1.42551   1.43304
 Alpha virt. eigenvalues --    1.45724   1.46958   1.48035   1.48201   1.48474
 Alpha virt. eigenvalues --    1.49349   1.51781   1.52228   1.52457   1.52844
 Alpha virt. eigenvalues --    1.53049   1.53390   1.54311   1.54522   1.55054
 Alpha virt. eigenvalues --    1.55765   1.56157   1.56804   1.57018   1.57435
 Alpha virt. eigenvalues --    1.58047   1.58820   1.59247   1.59589   1.60903
 Alpha virt. eigenvalues --    1.61071   1.62447   1.63112   1.64656   1.65700
 Alpha virt. eigenvalues --    1.65983   1.66596   1.67469   1.68103   1.69270
 Alpha virt. eigenvalues --    1.69806   1.70555   1.70948   1.72156   1.72417
 Alpha virt. eigenvalues --    1.72742   1.72989   1.73697   1.74083   1.74097
 Alpha virt. eigenvalues --    1.74638   1.75433   1.77353   1.77780   1.77991
 Alpha virt. eigenvalues --    1.79078   1.80194   1.81235   1.82811   1.83648
 Alpha virt. eigenvalues --    1.83986   1.84513   1.84888   1.85401   1.87281
 Alpha virt. eigenvalues --    1.88148   1.88533   1.89452   1.89813   1.90052
 Alpha virt. eigenvalues --    1.91171   1.91586   1.92578   1.93370   1.93726
 Alpha virt. eigenvalues --    1.94259   1.95156   1.95457   1.95896   1.96107
 Alpha virt. eigenvalues --    1.96329   1.97398   1.98139   1.99419   1.99896
 Alpha virt. eigenvalues --    2.00199   2.00622   2.01037   2.02269   2.03569
 Alpha virt. eigenvalues --    2.05162   2.05632   2.05747   2.06274   2.07219
 Alpha virt. eigenvalues --    2.07535   2.08447   2.09273   2.09977   2.10606
 Alpha virt. eigenvalues --    2.10907   2.13285   2.15640   2.16512   2.17595
 Alpha virt. eigenvalues --    2.19098   2.20370   2.22368   2.23263   2.23966
 Alpha virt. eigenvalues --    2.24413   2.24932   2.26022   2.26941   2.30982
 Alpha virt. eigenvalues --    2.31742   2.32338   2.34562   2.35370   2.36243
 Alpha virt. eigenvalues --    2.38780   2.40592   2.40702   2.42045   2.42699
 Alpha virt. eigenvalues --    2.43632   2.44862   2.45477   2.45683   2.46366
 Alpha virt. eigenvalues --    2.46769   2.47480   2.49296   2.50066   2.52610
 Alpha virt. eigenvalues --    2.53287   2.55052   2.55221   2.57971   2.58365
 Alpha virt. eigenvalues --    2.58714   2.58959   2.61529   2.62807   2.63262
 Alpha virt. eigenvalues --    2.63753   2.64348   2.64649   2.67798   2.68716
 Alpha virt. eigenvalues --    2.69208   2.69901   2.70039   2.71050   2.71310
 Alpha virt. eigenvalues --    2.71800   2.72805   2.73343   2.73878   2.74099
 Alpha virt. eigenvalues --    2.74498   2.74648   2.74833   2.76061   2.76369
 Alpha virt. eigenvalues --    2.76989   2.78136   2.78718   2.79389   2.79585
 Alpha virt. eigenvalues --    2.79813   2.80766   2.81247   2.82128   2.82994
 Alpha virt. eigenvalues --    2.83217   2.83930   2.84527   2.85064   2.85309
 Alpha virt. eigenvalues --    2.86199   2.87238   2.88540   2.88867   2.89917
 Alpha virt. eigenvalues --    2.90130   2.91776   2.92893   2.93687   2.94234
 Alpha virt. eigenvalues --    2.94655   2.97119   2.97358   2.97688   2.99649
 Alpha virt. eigenvalues --    3.00221   3.00571   3.00819   3.01827   3.02967
 Alpha virt. eigenvalues --    3.08055   3.08489   3.09445   3.14420   3.16051
 Alpha virt. eigenvalues --    3.18240   3.19061   3.21216   3.22118   3.23504
 Alpha virt. eigenvalues --    3.24839   3.26500   3.28035   3.30258   3.33624
 Alpha virt. eigenvalues --    3.34322   3.36477   3.37970   3.39522   3.41593
 Alpha virt. eigenvalues --    3.42016   3.43540   3.44509   3.44883   3.46535
 Alpha virt. eigenvalues --    3.51606   3.53824   3.54104   3.56763   3.56970
 Alpha virt. eigenvalues --    3.61125   3.61706   3.62161   3.66399   3.66693
 Alpha virt. eigenvalues --    3.72211   3.76180   3.78211   3.80196   3.81894
 Alpha virt. eigenvalues --    3.83150   3.84343   3.88481   3.92363   3.93060
 Alpha virt. eigenvalues --    3.95133   3.98692   3.99678   4.02605   4.03003
 Alpha virt. eigenvalues --    4.04986   4.06720   4.08475   4.09076   4.15128
 Alpha virt. eigenvalues --    4.19175   4.21066   4.22534   4.28548   4.46380
 Alpha virt. eigenvalues --    4.53166   4.64418   4.74071   4.80722   4.83131
 Alpha virt. eigenvalues --    4.83695   4.92514   4.95262   5.12713   5.22033
 Alpha virt. eigenvalues --    5.23144   5.47438   5.76629   8.07079  17.46091
 Alpha virt. eigenvalues --   17.55726  17.59015  23.56407  23.57783  23.70764
 Alpha virt. eigenvalues --   23.82103  23.87600  23.91416  23.92966  23.93444
 Alpha virt. eigenvalues --   23.94366  23.95939  23.96611  23.99922  24.02115
 Alpha virt. eigenvalues --   24.06034  24.07469  24.08481  24.09722  24.10497
 Alpha virt. eigenvalues --   24.16329  24.17123  24.18132  24.19724  35.56506
 Alpha virt. eigenvalues --   35.59207  35.64101  35.66614  50.01025 189.25811
          Condensed to atoms (all electrons):
               1          2          3          4          5          6
     1  S   19.953530  -0.049841  -0.029554   0.022125   0.166871   0.000074
     2  O   -0.049841   8.044117   0.000033   0.000003  -0.224355  -0.000000
     3  N   -0.029554   0.000033   8.158846  -0.864900  -0.000023   0.001046
     4  N    0.022125   0.000003  -0.864900   7.621383   0.000643  -0.005193
     5  N    0.166871  -0.224355  -0.000023   0.000643   6.968357  -0.000000
     6  N    0.000074  -0.000000   0.001046  -0.005193  -0.000000   6.918058
     7  C    0.020213  -0.000230  -0.648293   0.491338  -0.002302  -0.016632
     8  C    0.242563   0.001608  -0.426350   0.333451   0.019710   0.008451
     9  C    0.121104   0.000032  -0.006686   0.335537   0.000574  -0.009522
    10  C    1.022346   0.006117   0.441846  -0.443674   0.041420  -0.000719
    11  C   -2.539065  -0.001739   0.032920  -0.206557  -0.244431   0.003382
    12  C   -0.649019  -0.000056   0.345337  -0.278568  -0.005079  -0.014694
    13  C   -0.472966  -0.002685  -0.034686   0.013694  -0.002643   0.001207
    14  C    0.004502  -0.031720   0.005583   0.016261   0.074626   0.000019
    15  C   -0.036490  -0.000003   0.344490  -0.643378  -0.000335   0.068745
    16  C    0.366364   0.037103  -0.001450  -0.001489  -0.430492   0.000005
    17  C   -0.387357   0.013522  -0.000078  -0.011174  -0.092845  -0.000016
    18  C    0.017762   0.000000  -0.419904   0.519549   0.000066  -0.354541
    19  C   -0.185411  -0.095455   0.002590  -0.002560   0.031327   0.000000
    20  C   -0.345744   0.007046   0.001743  -0.000875   0.004768  -0.000004
    21  C   -1.363155   0.662211   0.006503  -0.000122   0.331049   0.000001
    22  C    0.453726  -0.015500  -0.003015  -0.000488  -0.005161  -0.000000
    23  C    0.001387  -0.000000  -0.077179   0.136993   0.000005   0.521287
    24  C    0.000611   0.000000  -0.047733   0.025416   0.000001   0.007872
    25  C   -0.000001  -0.000000   0.002293   0.000217  -0.000000  -0.195153
    26  C    0.009227  -0.036808  -0.000126   0.000045   0.241814   0.000000
    27  C   -0.000032  -0.000000   0.005143  -0.002022  -0.000000  -0.144022
    28  C    0.000006   0.000000  -0.002764  -0.001551   0.000000   0.264613
    29  H   -0.124718   0.003715   0.084171  -0.016693   0.027988   0.000074
    30  H   -0.005716  -0.000005   0.001095  -0.005187  -0.000061  -0.007365
    31  H   -0.016671  -0.000161   0.002812  -0.001576  -0.000627  -0.000036
    32  H    0.000775  -0.000012   0.307654   0.031553  -0.000401  -0.000055
    33  H    0.000713   0.000000  -0.008202   0.000141  -0.000010   0.047638
    34  H    0.025017  -0.000180  -0.000374  -0.000058  -0.001270   0.000004
    35  H    0.000020  -0.000000   0.009880  -0.002179  -0.000003   0.005298
    36  H   -0.028690  -0.003759   0.000145  -0.000089   0.008255  -0.000000
    37  H   -0.015292   0.000183   0.000298  -0.000080   0.000326  -0.000000
    38  H    0.008763   0.000133  -0.000105   0.000033   0.000447   0.000000
    39  H    0.038900   0.000967  -0.005399   0.001129   0.331495  -0.000000
    40  H    0.000005   0.000000  -0.001487   0.000095   0.000000   0.012099
    41  H   -0.000000  -0.000000   0.000069   0.000106  -0.000000  -0.003705
    42  H   -0.010631  -0.000039  -0.000687  -0.000157  -0.052052  -0.000000
    43  H    0.000062   0.001061   0.000056  -0.000040  -0.064907   0.000000
    44  H    0.005765   0.006392   0.000127   0.000036  -0.039119   0.000000
    45  H    0.000006  -0.000000   0.000207  -0.000075  -0.000000  -0.122220
    46  H    0.000000   0.000000  -0.000013  -0.000037   0.000000   0.015149
               7          8          9         10         11         12
     1  S    0.020213   0.242563   0.121104   1.022346  -2.539065  -0.649019
     2  O   -0.000230   0.001608   0.000032   0.006117  -0.001739  -0.000056
     3  N   -0.648293  -0.426350  -0.006686   0.441846   0.032920   0.345337
     4  N    0.491338   0.333451   0.335537  -0.443674  -0.206557  -0.278568
     5  N   -0.002302   0.019710   0.000574   0.041420  -0.244431  -0.005079
     6  N   -0.016632   0.008451  -0.009522  -0.000719   0.003382  -0.014694
     7  C   10.915007  -0.523250   0.213597  -1.173558   1.504654  -2.215828
     8  C   -0.523250  10.539869  -0.043961   2.984482  -4.703634  -1.764032
     9  C    0.213597  -0.043961   6.538255   0.191811  -0.090796  -0.467192
    10  C   -1.173558   2.984482   0.191811  13.131826  -6.182370  -1.469494
    11  C    1.504654  -4.703634  -0.090796  -6.182370  22.528209  -1.304368
    12  C   -2.215828  -1.764032  -0.467192  -1.469494  -1.304368  11.541593
    13  C   -2.555644  -1.267255  -0.704971  -3.154710   0.198159   3.027658
    14  C   -0.033846   0.731875   0.010984   1.991783  -4.425243  -0.484342
    15  C   -0.441382   0.464090  -0.201797  -0.090490   0.144635   0.135193
    16  C   -0.018028   0.083365   0.003747   0.229849   0.127978  -0.093575
    17  C   -0.126405  -0.371357  -0.003345  -1.149465   1.566160   0.346826
    18  C    0.565615  -0.090998  -0.107899  -0.172215   0.088251  -0.483866
    19  C   -0.043074  -0.073362   0.002369  -0.108086   0.259169   0.016807
    20  C   -0.027116  -0.052283   0.008701  -0.025494  -0.345559   0.077724
    21  C   -0.025323  -0.080645  -0.003404   0.292622  -0.858604  -0.035583
    22  C    0.023967  -0.042207   0.001648  -0.182463   0.588398   0.010682
    23  C   -0.023797  -0.372143   0.432419  -0.086093  -0.010549  -0.091016
    24  C    0.176919  -0.105732  -0.207778  -0.019642   0.006617  -0.065629
    25  C   -0.017317   0.015336  -0.015961   0.000805   0.000993   0.017447
    26  C    0.000468  -0.008458   0.000930  -0.002106  -0.003711  -0.001995
    27  C   -0.046656   0.015481   0.021433   0.001736   0.000986   0.030191
    28  C    0.034928  -0.014786  -0.031473  -0.001128  -0.000838  -0.021194
    29  H   -0.269536   0.451935  -0.037863   0.915336  -1.160617   0.014023
    30  H   -0.189890  -0.025495  -0.040517  -0.035666  -0.062012   0.566889
    31  H   -0.056046   0.014782  -0.004245  -0.020821  -0.152858   0.066801
    32  H    0.039126  -0.038817  -0.012998  -0.048633   0.022004  -0.002296
    33  H   -0.027867   0.061578  -0.055418   0.011359   0.029362  -0.046196
    34  H    0.018358  -0.024290  -0.002132  -0.049371   0.083414  -0.004750
    35  H   -0.078402   0.045823  -0.044247   0.006181   0.004005   0.040890
    36  H   -0.001079  -0.003154   0.000078  -0.010994   0.016425   0.001585
    37  H   -0.003759   0.003662   0.000130   0.009946  -0.032032   0.000195
    38  H    0.000808  -0.000682   0.000027  -0.003139   0.010057  -0.000253
    39  H    0.010421  -0.008693   0.001306  -0.020183   0.028438  -0.003870
    40  H    0.007779  -0.005441  -0.001098  -0.000418  -0.000118  -0.003896
    41  H   -0.000920   0.000303   0.001037   0.000016   0.000003   0.000400
    42  H    0.003292  -0.014757  -0.000287  -0.001683   0.036301   0.001303
    43  H   -0.000166   0.000371  -0.000028  -0.000733  -0.002710  -0.000114
    44  H   -0.001172   0.003811   0.000200   0.006154  -0.016064  -0.000355
    45  H   -0.002950   0.000565  -0.000035   0.000042   0.000177   0.002116
    46  H    0.000272  -0.000223   0.000056  -0.000013  -0.000017  -0.000337
              13         14         15         16         17         18
     1  S   -0.472966   0.004502  -0.036490   0.366364  -0.387357   0.017762
     2  O   -0.002685  -0.031720  -0.000003   0.037103   0.013522   0.000000
     3  N   -0.034686   0.005583   0.344490  -0.001450  -0.000078  -0.419904
     4  N    0.013694   0.016261  -0.643378  -0.001489  -0.011174   0.519549
     5  N   -0.002643   0.074626  -0.000335  -0.430492  -0.092845   0.000066
     6  N    0.001207   0.000019   0.068745   0.000005  -0.000016  -0.354541
     7  C   -2.555644  -0.033846  -0.441382  -0.018028  -0.126405   0.565615
     8  C   -1.267255   0.731875   0.464090   0.083365  -0.371357  -0.090998
     9  C   -0.704971   0.010984  -0.201797   0.003747  -0.003345  -0.107899
    10  C   -3.154710   1.991783  -0.090490   0.229849  -1.149465  -0.172215
    11  C    0.198159  -4.425243   0.144635   0.127978   1.566160   0.088251
    12  C    3.027658  -0.484342   0.135193  -0.093575   0.346826  -0.483866
    13  C   11.383065  -0.574026  -0.114730  -0.220600   0.593434   0.030948
    14  C   -0.574026  12.357964  -0.015475   0.977063  -1.927468   0.000976
    15  C   -0.114730  -0.015475   8.376096  -0.000114  -0.002557   1.072703
    16  C   -0.220600   0.977063  -0.000114  14.426307  -0.764902  -0.000126
    17  C    0.593434  -1.927468  -0.002557  -0.764902   7.643403   0.000143
    18  C    0.030948   0.000976   1.072703  -0.000126   0.000143   8.439167
    19  C    0.008329  -1.279578  -0.000929  -2.034470   1.197351  -0.000059
    20  C    0.144093  -1.583103  -0.002980   0.804356   0.293623   0.000418
    21  C    0.003256  -1.720330   0.000524  -6.519753  -0.511719   0.000070
    22  C   -0.021170   1.081940   0.000890  -1.534434  -0.347858  -0.000025
    23  C   -0.008216  -0.001255  -2.317570  -0.000268   0.000799  -0.828675
    24  C   -0.003511   0.000043  -1.625576  -0.000005   0.000009  -3.215271
    25  C    0.003620   0.000001   0.312090   0.000002  -0.000003   1.109413
    26  C   -0.000072  -0.037615  -0.000018  -0.247198  -0.003936   0.000035
    27  C    0.005330  -0.000004   0.045092   0.000002   0.000000   0.753131
    28  C   -0.004602  -0.000001  -0.243674  -0.000001   0.000002  -1.251894
    29  H   -0.053178   0.273017  -0.022778   0.009890  -0.104099  -0.013142
    30  H    0.121515  -0.012825   0.019200  -0.002305   0.007641  -0.022002
    31  H    0.465768  -0.007841  -0.008019  -0.001629   0.015252  -0.001324
    32  H    0.003745  -0.005107  -0.003781  -0.000408   0.003044   0.011819
    33  H   -0.041311   0.001325   0.509481   0.000486  -0.001419   0.055254
    34  H    0.007890  -0.037116   0.002803  -0.001981   0.433722  -0.000090
    35  H    0.010731   0.000027   0.119669   0.000067  -0.000099   0.511674
    36  H    0.003970  -0.040994  -0.000043  -0.169528   0.039500  -0.000007
    37  H    0.002247  -0.010193  -0.000401   0.092176  -0.070012  -0.000000
    38  H   -0.001133   0.042711   0.000024  -0.039809  -0.010916   0.000002
    39  H   -0.000849   0.003871   0.000372   0.074084  -0.013309   0.000267
[...]
 109,-0.00000160,-0.00000098,0.00000024,0.00000050,0.00000065,0.0000006
 1,-0.12269878,0.06126641,0.09932027,-0.00000103,0.00000022,0.00000058,
 -0.00000005,-0.00000112,-0.00000107,0.00000206,-0.00000109,-0.00000191
 ,-0.00000346,-0.00000066,-0.00000021,0.00000217,0.00000068,0.00000130,
 -0.00000063,-0.00000111,-0.00000075,0.00000015,-0.00000011,0.00000006,
 -0.00001046,-0.00000517,0.00000371,0.00000011,0.00000003,0.00000011,-0
 .00000959,0.00001818,-0.00004760,-0.00000787,-0.00001243,-0.00000461,-
 0.00000186,-0.00001853,0.00001889,-0.00265248,0.00000297,-0.00014742,0
 .00000009,-0.00000020,-0.00000008,0.00000008,0.00000003,-0.00000013,0.
 01319857,-0.00817974,-0.01406192,0.13300716,0.00000220,0.00003688,-0.0
 0007842,-0.00033213,-0.00012225,-0.00128242,-0.00000173,0.00000110,0.0
 0000077,-0.00000957,0.00000137,0.00000437,-0.01870986,0.00861067,0.023
 59871,-0.00000007,-0.00000083,-0.00000066,-0.00000184,0.00000033,0.000
 00238,0.00000194,-0.00000198,0.00000096,0.00000339,0.00000131,-0.00000
 098,-0.00001796,-0.00000841,-0.00000525,0.00002836,0.00002453,0.000004
 18,-0.00000161,-0.00000230,-0.00000234,-0.00000893,0.00000507,0.000010
 04,0.00029485,0.00008487,0.00004250,0.00000167,0.00000152,0.00000155,0
 .00077322,-0.00089091,-0.00010478,0.00000661,-0.00005548,0.00007990,-0
 .00000227,-0.00000076,0.00000029,-0.00019168,-0.00016135,-0.00003778,-
 0.00007917,-0.00002590,-0.00000141,0.00074106,0.00181926,0.00232309,0.
 00003755,0.00006078,0.00004430,0.00000181,0.00000115,0.00000108,-0.000
 00156,-0.00000005,-0.00000042,0.00000062,0.00000039,0.00000038,0.06496
 077,-0.10002391,-0.08707460,-0.00000045,0.00000021,0.00000051,-0.00000
 028,-0.00000035,-0.00000067,0.00000120,-0.00000105,-0.00000121,-0.0000
 0219,-0.00000075,0.00000010,0.00000184,0.00000061,0.00000024,-0.000000
 75,-0.00000118,-0.00000072,0.00000007,-0.00000023,-0.00000079,-0.00000
 598,-0.00000184,-0.00000034,0.00000007,-0.00000009,-0.00000011,-0.0000
 0134,0.00001741,0.00000881,-0.00000686,-0.00000521,-0.00000010,-0.0000
 0444,-0.00002237,0.00001372,-0.00286843,-0.00128896,0.00088286,0.00000
 002,0.00000020,0.00000017,-0.00000031,0.,0.00000016,0.00614109,-0.0045
 6840,-0.00598986,-0.06270617,0.10633792,-0.00002096,-0.00007716,0.0000
 4332,0.00050873,0.00021350,0.00147719,0.00000279,0.00000011,-0.0000009
 7,0.00001307,-0.00000234,-0.00000690,0.01051857,0.00332347,-0.01246102
 ,0.00000095,0.00000007,0.00000064,0.00000333,-0.00000027,-0.00000257,-
 0.00000306,0.00000012,0.00000328,-0.00000439,-0.00000039,0.00000094,0.
 00001751,0.00000934,0.00000974,-0.00001970,0.00002444,-0.00000250,0.00
 000302,0.00000399,0.00000763,0.00002239,-0.00001079,-0.00001798,-0.000
 18883,0.00007049,-0.00012198,-0.00000286,-0.00000240,-0.00000196,0.000
 48659,0.00022427,-0.00004821,0.00003151,0.00002002,-0.00002291,0.00000
 376,0.00000062,0.00000122,0.00003841,-0.00001022,0.00014203,0.00002891
 ,0.00003107,-0.00002039,-0.00327811,-0.00166520,-0.00177765,0.00005415
 ,-0.00000088,0.00002732,-0.00000344,-0.00000089,-0.00000071,0.00000170
 ,0.00000122,-0.00000044,-0.00000058,-0.00000079,-0.00000068,0.10102183
 ,-0.08278417,-0.18283655,0.00000109,-0.00000019,-0.00000051,0.00000004
 ,0.00000132,0.00000117,-0.00000330,0.00000165,-0.00000002,0.00000411,0
 .00000064,-0.00000009,-0.00000201,0.00000067,-0.00000053,0.00000064,0.
 00000094,0.00000096,-0.00000010,-0.00000014,-0.00000039,0.00001055,0.0
 0000853,-0.00000541,-0.00000010,-0.00000008,-0.00000017,0.00002364,-0.
 00006360,0.00001514,0.00000823,0.00000651,-0.00000298,-0.00000163,0.00
 001060,-0.00001242,0.00263566,0.00009554,0.00032152,-0.00000013,0.0000
 0027,0.00000018,-0.00000015,-0.00000003,0.00000017,0.01211470,-0.00914
 242,-0.01424502,-0.11699159,0.08506403,0.19981078,0.00002686,0.0000597
 2,-0.00000002,-0.00003138,0.00025721,-0.00140785,-0.00000143,0.0000007
 0,0.00000058,-0.00001330,0.00000142,0.00000556,0.01204333,-0.02311156,
 0.01115285,-0.00000052,-0.00000091,-0.00000055,-0.00000300,0.00000231,
 -0.00000069,0.00000385,-0.00000182,-0.00000069,0.00000406,0.00000082,-
 0.00000014,-0.00001673,-0.00000790,-0.00001056,0.00001738,-0.00001929,
 -0.00000660,-0.00000298,-0.00000394,-0.00000483,-0.00001783,0.00001162
 ,0.00001567,-0.00004609,-0.00025825,0.00022342,0.00000261,0.00000080,0
 .00000274,-0.00094166,0.00094088,0.00029791,-0.00006876,0.00001558,-0.
 00013410,-0.00000289,-0.00000110,-0.00000025,0.00004704,0.00000897,-0.
 00012975,0.00005182,-0.00004658,0.00006090,0.00228610,-0.00022505,0.00
 270262,-0.00012902,-0.00003061,0.00000406,0.00000255,0.00000188,0.0000
 0043,-0.00000183,-0.00000072,0.00000018,0.00000093,0.00000084,0.000000
 40,-0.13035049,0.11011247,-0.05631220,-0.00000058,0.00000029,0.0000004
 3,-0.00000052,-0.00000095,-0.00000095,0.00000202,-0.00000166,0.0000006
 0,-0.00000373,-0.00000112,0.00000005,0.00000144,-0.00000074,0.00000061
 ,-0.00000091,-0.00000104,-0.00000098,0.00000011,0.,-0.00000029,-0.0000
 1679,-0.00001209,0.00001806,0.00000004,0.,-0.00000003,-0.00005412,0.00
 007534,-0.00005733,-0.00000943,-0.00000665,0.00000414,0.00000041,-0.00
 001148,0.00000914,-0.00049857,-0.00181449,0.00045544,0.00000010,0.0000
 0010,-0.00000006,-0.00000022,-0.00000003,0.00000016,-0.00959588,0.0139
 3110,-0.00520134,-0.00923799,0.01195739,-0.00703498,0.13655610,0.00006
 283,0.00006223,-0.00004209,0.00026163,0.00056779,-0.00341260,-0.000003
 11,0.00000057,0.00000098,-0.00001744,0.00000276,0.00000874,-0.00143511
 ,-0.02283352,0.01272291,-0.00000078,-0.00000027,-0.00000085,-0.0000038
 7,0.00000218,0.00000251,0.00000298,-0.00000097,-0.00000180,0.00000629,
 0.00000107,-0.00000091,-0.00002433,-0.00001531,-0.00001241,0.00002811,
 0.00000574,0.00000075,-0.00000327,-0.00000615,-0.00000761,-0.00002278,
 0.00001383,0.00002134,0.00012249,-0.00021901,0.00025944,0.00000358,0.0
 0000216,0.00000299,-0.00068404,0.00027592,0.00002302,-0.00011138,-0.00
 001144,-0.00006999,-0.00000463,-0.00000024,-0.00000150,-0.00004736,-0.
 00009401,-0.00010701,0.00000098,-0.00003793,0.00004625,0.00369463,0.00
 227456,0.00633670,-0.00008910,-0.00000419,0.00000136,0.00000380,0.0000
 0096,0.00000179,-0.00000193,-0.00000090,-0.00000057,0.00000034,0.00000
 080,0.00000088,0.10645197,-0.18736635,0.07007576,-0.00000142,0.0000003
 1,0.00000048,0.00000027,-0.00000094,-0.00000105,0.00000302,-0.00000168
 ,0.00000061,-0.00000455,-0.00000111,0.00000039,0.00000247,-0.00000054,
 0.00000020,-0.00000113,-0.00000185,-0.00000101,0.00000010,-0.00000030,
 0.00000002,-0.00002265,-0.00002191,0.00002052,0.00000017,-0.00000014,0
 .00000014,-0.00008017,0.00010642,-0.00007585,-0.00001594,-0.00001238,0
 .00000294,-0.00000501,-0.00002157,0.00002398,0.00032738,-0.00271035,-0
 .00064460,0.00000006,-0.00000014,0.00000019,0.00000002,0.00000003,-0.0
 0000014,-0.00597739,0.01084816,-0.00421942,0.00940574,-0.00982046,0.00
 464895,-0.11182130,0.20901837,-0.00004740,-0.00003859,0.00005354,0.000
 87184,0.00076738,0.00158697,0.00000191,-0.00000030,-0.00000082,0.00001
 331,-0.00000174,-0.00000682,-0.00068681,0.01515962,-0.00821254,0.00000
 050,0.00000046,0.00000045,0.00000259,-0.00000080,-0.00000287,-0.000001
 34,-0.00000189,0.00000161,-0.00000452,-0.00000092,0.00000042,0.0000210
 3,0.00001184,0.00000997,-0.00002267,0.00000790,-0.00001325,0.00000265,
 0.00000375,0.00000663,0.00001829,-0.00000944,-0.00001665,-0.00010517,0
 .00005076,-0.00010694,-0.00000223,-0.00000196,-0.00000178,0.00009434,0
 .00013467,0.00000506,0.00006858,-0.00000621,0.00001383,0.00000320,0.00
 000025,0.00000066,0.00004706,0.00009265,-0.00001079,0.00000130,0.00001
 293,-0.00002042,-0.00220839,-0.00253906,-0.00166627,0.00004047,0.00002
 496,0.00000385,-0.00000246,-0.00000064,-0.00000128,0.00000155,0.000000
 21,0.00000065,-0.00000026,-0.00000039,-0.00000068,-0.05436279,0.070203
 92,-0.08400780,0.00000081,-0.00000005,-0.00000044,-0.00000006,0.000000
 37,0.00000090,-0.00000183,0.00000209,-0.00000153,0.00000344,0.00000055
 ,-0.00000037,-0.00000220,0.00000027,0.00000036,0.00000110,0.00000115,0
 .00000096,-0.00000004,0.00000024,0.00000018,0.00001138,0.00001049,-0.0
 0000938,-0.00000007,0.00000011,0.00000006,0.00007383,-0.00007466,0.000
 04602,0.00001166,0.00000715,-0.00000181,0.00000447,0.00001696,-0.00001
 527,0.00010557,0.00213947,0.00016738,-0.00000002,-0.00000002,-0.000000
 13,0.00000008,0.,0.00000002,-0.01209892,0.01713237,-0.00756321,0.01279
 766,-0.01750171,0.00972803,0.05534847,-0.08560441,0.09003339,0.0000026
 6,0.00000095,-0.00000305,-0.00000165,-0.00000020,0.00000016,-0.0000935
 4,-0.00002552,-0.00000308,0.00002512,0.00002494,0.00001992,-0.00000057
 ,-0.00000065,-0.00000019,-0.00392317,-0.02250361,-0.02845362,-0.000002
 66,-0.00001472,-0.00001396,-0.00000648,-0.00001657,-0.00002348,0.00001
 834,-0.00000333,-0.00001833,0.00000088,-0.00000005,0.00000202,-0.00000
 285,0.00000145,0.00000378,0.00000080,-0.00000328,-0.00000825,-0.000008
 10,0.00000341,0.00000729,-0.00000020,-0.00000208,0.00000426,0.00002017
 ,0.00004475,0.00006966,-0.00000076,0.00000107,-0.00000092,-0.00000057,
 0.00000165,-0.00000135,0.00046649,-0.00058552,-0.00074117,-0.00000064,
 0.00000014,-0.00000031,0.00000038,-0.00000065,0.00000028,0.00000104,0.
 00000133,-0.00000009,-0.00000075,0.00000037,-0.00000048,-0.00259708,-0
 .00380181,-0.00104878,-0.00072717,-0.00042122,-0.00045717,-0.00463471,
 -0.00028996,0.00281614,0.00000024,0.00000012,-0.00000034,-0.05730482,0
 .01221085,0.01961028,0.00344704,0.01657043,0.02173693,-0.00000237,-0.0
 0000061,-0.00000008,0.00000198,-0.00000054,0.00000002,-0.00000206,0.00
 000061,0.00000134,-0.00000301,0.00000531,0.00000857,-0.00000976,-0.000
 01095,0.00000364,0.00000037,-0.00000133,0.00000071,-0.00029205,-0.0001
 1956,-0.00014352,-0.00000016,0.00000009,-0.00000022,-0.00000015,0.0000
 0009,-0.00000016,-0.00000004,-0.00000011,0.00000004,0.00000007,0.,0.00
 000027,0.00020738,0.00020571,-0.00026353,0.00004877,0.00097704,0.00107
 138,-0.00000004,-0.00000006,0.00000002,-0.00000013,0.00000003,0.000000
 15,-0.00000003,-0.00000009,0.00000003,0.06471172,0.00000481,0.00000408
 ,-0.00000665,-0.00000340,-0.00000097,0.00000100,-0.00020977,-0.0000489
 3,-0.00002460,0.00008136,0.00004715,0.00006412,-0.00000179,-0.00000180
 ,-0.00000042,-0.00615429,-0.01288952,-0.00880161,0.00000373,-0.0000133
 3,-0.00002715,0.00000195,-0.00004376,-0.00004797,0.00006127,-0.0000512
 8,-0.00004239,-0.00000231,0.00000191,0.00000312,0.00000062,-0.00000284
 ,0.00000840,0.00000182,-0.00001484,-0.00000536,-0.00001395,0.00001180,
 0.00001177,-0.00000078,-0.00000444,0.00000780,-0.00003671,0.00005367,-
 0.00000090,-0.00000036,0.00000342,-0.00000166,-0.00000097,0.00000171,-
 0.00000278,0.00007524,0.00003278,-0.00055270,-0.00000083,-0.00000046,-
 0.00000082,0.00000092,0.00000004,0.00000065,0.00000234,0.00000241,0.00
 000055,-0.00000196,-0.00000025,-0.00000062,-0.00260475,0.00706635,-0.0
 0438677,-0.00007259,-0.00019658,0.00035699,0.00036051,0.00477409,-0.00
 299774,0.00000006,0.00000079,0.00000026,0.01165253,-0.14785737,-0.1365
 4034,-0.00157189,0.00213832,-0.00548661,-0.00000381,-0.00000157,0.0000
 0027,0.00000353,0.00000212,-0.00000167,-0.00000287,0.00000047,0.000001
 12,-0.00000647,0.00001443,0.00001508,0.00001660,0.00000931,-0.00006507
 ,0.00000067,-0.00000212,0.00000187,-0.00011921,-0.00024480,0.00006629,
 -0.00000046,0.00000020,-0.00000027,-0.00000010,0.00000051,-0.00000028,
 -0.00000018,0.00000004,-0.00000022,0.00000021,-0.00000010,-0.00000032,
 0.00028672,-0.00107768,0.00072021,-0.00004092,-0.00045192,0.00010427,-
 0.00000010,-0.00000005,-0.00000011,0.00000006,-0.00000041,-0.00000028,
 -0.00000013,-0.00000014,0.00000013,-0.00231945,0.15037724,0.00000508,0
 .00000419,-0.00000736,-0.00000376,-0.00000084,0.00000090,-0.00023359,-
 0.00007308,-0.00001431,0.00008929,0.00007952,0.00005440,-0.00000212,-0
 .00000186,-0.00000065,-0.00791571,-0.00436114,-0.00787936,0.00000632,-
 0.00001933,-0.00002600,0.00000175,-0.00004314,-0.00006016,0.00006273,-
 0.00002426,-0.00007942,-0.00000223,0.00000226,0.00000401,-0.00000006,-
 0.00000065,0.00000712,-0.00000066,-0.00000275,-0.00001631,-0.00001397,
 0.00000764,0.00001761,-0.00000004,-0.00000584,0.00000861,-0.00003201,-
 0.00002684,0.00004395,-0.00000052,0.00000434,-0.00000168,-0.00000109,0
 .00000207,-0.00000338,0.00009750,-0.00037437,-0.00003541,-0.00000074,-
 0.00000066,-0.00000096,0.00000088,0.00000052,0.00000111,0.00000246,0.0
 0000228,0.00000095,-0.00000224,-0.00000038,-0.00000085,0.00044776,-0.0
 0406242,0.00589379,-0.00001912,0.00045532,0.00010500,0.00363561,-0.002
 82295,0.00255193,0.00000002,0.00000086,0.00000045,0.01889552,-0.136703
 99,-0.21855704,-0.00104496,-0.01040261,-0.00594628,-0.00000456,-0.0000
 0118,-0.00000009,0.00000457,-0.00000076,0.00000066,-0.00000296,0.00000
 028,0.00000131,-0.00000624,0.00001178,0.00002046,0.00004301,-0.0000521
 8,-0.00002284,0.00000066,-0.00000272,0.00000188,-0.00014301,0.00006645
 ,-0.00014775,-0.00000053,0.00000020,-0.00000030,-0.00000022,0.00000065
 ,-0.00000043,-0.00000019,-0.00000005,-0.00000024,0.00000031,-0.0000002
 0,-0.00000034,-0.00016108,0.00074229,-0.00073708,-0.00020740,-0.000171
 92,-0.00068674,-0.00000011,-0.00000006,-0.00000015,0.00000007,-0.00000
 050,-0.00000032,-0.00000015,-0.00000009,0.00000016,-0.01326345,0.15603
 503,0.22630238,0.00000274,0.00000208,-0.00000377,-0.00000190,-0.000000
 42,0.00000031,-0.00009886,-0.00003407,-0.00001458,0.00001893,0.0000177
 3,0.00001149,-0.00000107,-0.00000100,-0.00000035,-0.00436976,0.0003288
 7,0.00359531,-0.00000457,-0.00000888,-0.00001089,-0.00000322,-0.000017
 39,-0.00001846,0.00007683,-0.00000204,-0.00003670,-0.00000100,0.000002
 16,-0.00000126,0.00000087,-0.00000108,0.00000526,0.00000236,-0.0000058
 4,-0.00000541,-0.00000955,0.00000511,0.00000637,-0.00000031,-0.0000029
 3,0.00000446,-0.00009330,-0.00001945,0.00002910,-0.00000047,0.00000186
 ,-0.00000111,-0.00000069,0.00000103,-0.00000146,-0.00001981,0.00011060
 ,-0.00026882,-0.00000047,-0.00000030,-0.00000040,0.00000043,0.,0.00000
 031,0.00000144,0.00000151,0.00000082,-0.00000112,-0.00000006,-0.000000
 32,0.00045647,0.00112462,0.00117012,0.00172183,-0.00027097,0.00131032,
 0.00524333,0.00218764,0.00210046,0.00000004,0.00000036,0.00000015,-0.0
 1551049,-0.01331408,-0.01232035,-0.25714690,-0.10663497,-0.07364699,-0
 .00000251,-0.00000089,-0.00000021,0.00000286,-0.00000085,-0.00000163,-
 0.00000152,-0.00000007,0.00000061,-0.00000418,0.00000403,0.00000982,0.
 00008975,-0.00003820,-0.00002472,0.00000032,-0.00000134,0.00000094,-0.
 00004661,-0.00004723,-0.00004277,-0.00000018,0.00000012,-0.00000014,-0
 .00000003,0.00000034,-0.00000018,-0.00000011,0.,-0.00000012,0.00000014
 ,-0.00000005,-0.00000029,0.00013569,0.00015429,0.00022926,0.00045921,0
 .00031030,-0.00083385,-0.00000008,-0.00000005,-0.00000008,0.00000005,-
 0.00000021,-0.00000014,-0.00000005,-0.00000009,0.00000008,0.00066212,0
 .00061512,-0.00023079,0.26844335,0.00000251,0.00000204,-0.00000179,-0.
 00000113,-0.00000035,0.00000013,-0.00007112,-0.00001216,-0.00000946,0.
 00003893,0.00000764,0.00003018,-0.00000078,-0.00000076,0.00000014,0.00
 091018,0.00474504,-0.00352076,-0.00000040,-0.00000616,-0.00000698,0.00
 000199,-0.00001227,-0.00001938,0.00001677,-0.00003249,0.00001637,-0.00
 000033,-0.00000410,0.00000637,-0.00000118,0.00000490,-0.00000172,-0.00
 000105,0.00000660,-0.00001158,-0.00000242,-0.00000458,0.00001056,-0.00
 000012,-0.00000180,0.00000148,-0.00003861,0.00006520,-0.00002307,-0.00
 000030,0.00000174,0.00000018,-0.00000109,0.00000036,-0.00000028,0.0001
 5094,-0.00081167,0.00085434,-0.00000019,0.00000007,-0.00000064,0.00000
 031,0.00000021,0.00000007,0.00000062,0.00000014,0.00000026,-0.00000056
 ,-0.00000028,-0.00000005,0.00059889,-0.00059699,-0.00037255,0.00001687
 ,0.00285687,-0.00622510,-0.01671514,-0.00432761,-0.00445108,-0.0000000
 4,0.00000037,-0.00000018,0.00633956,0.00452507,0.00303814,-0.10679229,
 -0.09857499,-0.05086354,-0.00000118,-0.00000115,0.00000027,0.00000087,
 0.,0.00000014,-0.00000097,0.00000075,-0.00000054,-0.00000329,0.0000120
 6,-0.00000123,-0.00004178,0.00010632,-0.00008636,0.00000050,-0.0000007
 0,0.00000038,0.00003716,0.00002260,0.00000477,-0.00000006,0.,-0.000000
 17,0.00000004,0.00000002,0.00000002,0.00000006,0.00000008,0.,0.0000000
 9,0.00000008,-0.00000018,-0.00087193,-0.00012309,-0.00025592,0.0008234
 1,-0.00188662,0.00249638,-0.00000001,0.,0.00000005,0.00000009,-0.00000
 016,-0.00000016,0.,-0.00000007,0.00000013,0.00007154,-0.00163766,0.001
 74112,0.11553465,0.09567748,0.00000079,0.00000060,-0.00000216,-0.00000
 102,-0.00000020,-0.00000016,-0.00005688,-0.00001874,0.00000202,0.00003
 489,0.00003472,0.00000939,-0.00000043,-0.00000035,-0.00000069,0.004326
 90,-0.00336359,0.00195153,0.00000070,-0.00000381,-0.00000694,0.0000041
 3,-0.00001375,-0.00001428,-0.00001321,0.00002265,-0.00001693,-0.000002
 30,0.00000495,-0.00000278,0.00000307,-0.00000388,0.00000467,0.00000076
 ,-0.00001093,0.00000272,-0.00000472,0.00000917,-0.00000013,-0.00000058
 ,-0.00000143,0.00000184,0.00000185,-0.00002572,0.00005865,-0.00000027,
 0.00000032,-0.00000081,0.00000015,0.00000020,-0.00000011,-0.00021119,0
 .00086595,-0.00037568,-0.00000032,-0.00000105,0.00000030,0.00000063,-0
 .00000048,0.00000057,0.00000160,0.00000148,0.00000127,-0.00000087,0.00
 000037,-0.00000019,0.00050265,-0.00051697,-0.00121803,0.00168001,-0.00
 614430,-0.00036935,-0.02166222,-0.00958327,-0.00334731,0.00000007,-0.0
 0000009,0.00000031,0.01237111,0.00837949,0.00790536,-0.07384368,-0.050
 91709,-0.07888037,-0.00000115,0.00000022,-0.00000040,0.00000055,0.0000
 0067,0.00000066,-0.00000036,-0.00000052,0.00000055,0.00000072,-0.00000
 325,0.00000947,-0.00002619,-0.00008809,0.00008053,0.00000016,-0.000000
 61,0.00000055,0.00006259,0.00002490,0.00002766,-0.00000030,0.00000009,
 -0.00000009,0.00000023,0.00000066,-0.00000039,-0.00000048,0.00000046,-
 0.00000058,0.00000006,-0.00000002,-0.00000020,-0.00105964,-0.00053288,
 -0.00011580,-0.00018688,0.00263653,-0.00068697,-0.00000007,-0.00000006
 ,-0.00000009,0.,-0.00000003,0.,-0.00000009,0.00000006,-0.00000006,-0.0
 0091139,0.00159637,-0.00079127,0.07899063,0.05765125,0.07577372\\0.000
 00105,0.00000467,0.00000028,-0.00000418,-0.00000405,-0.00000235,0.0000
 0020,0.00000455,-0.00000407,-0.00000218,0.00001275,-0.00001118,-0.0000
 0403,0.00000672,-0.00000716,-0.00000005,-0.00000118,-0.00000200,-0.000
 00185,0.00000698,-0.00000249,-0.00000063,-0.00000537,0.00000357,0.0000
 0382,-0.00001183,0.00000882,0.00000232,0.00000257,0.00000040,-0.000002
 68,-0.00000151,-0.00000455,-0.00000104,-0.00000011,0.00000084,0.000002
 92,0.00000134,0.00000065,0.00000044,-0.00001098,0.00000669,0.00000206,
 -0.00000116,-0.00000015,-0.00000156,-0.00000321,0.00000481,-0.00000063
 ,0.00000727,-0.00000755,-0.00000077,-0.00000217,0.00000118,0.00000001,
 0.00000440,-0.00000456,0.00000706,-0.00000262,0.00000446,0.00000634,0.
 00000650,0.00000040,-0.00000697,-0.00000444,0.00000187,-0.00000354,0.0
 0000119,0.00000201,0.00000316,0.00000122,-0.00000105,-0.00000056,0.000
 00003,-0.00000390,0.00000326,-0.00000132,0.00000308,0.00000311,0.00000
 298,-0.00000182,-0.00000251,0.00000015,0.00000116,-0.00000055,0.000000
 07,-0.00000022,-0.00000017,0.00000074,-0.00000024,0.00000029,-0.000000
 31,0.00000037,0.00000003,-0.00000748,0.00000602,-0.00000088,0.00000302
 ,-0.00000229,0.00000026,-0.00000072,0.00000148,0.00000069,0.00000027,-
 0.00000029,0.00000022,-0.00000041,0.00000235,-0.00000067,-0.00000071,-
 0.00000028,0.00000013,-0.00000062,0.00000022,0.00000050,-0.00000372,0.
 00000060,-0.00000020,-0.00000017,-0.00000057,-0.00000015,0.00000056,-0
 .00000031,-0.00000092,-0.00000132,0.00000272,-0.00000028,-0.00000221,0
 .00000139,-0.00000050,-0.00000067,0.00000386,-0.00000069,-0.00000041,-
 0.00000066,0.00000029,0.00000071,-0.00000154\\\@
 The archive entry for this job was punched.


 FIREWORKS ENDED
 AND SPECTATORS GONE AWAY....
 AH, HOW VAST AND DARK
                     SHIKI
 Job cpu time:       1 days  8 hours 18 minutes 47.8 seconds.
 Elapsed time:       0 days  0 hours 18 minutes 10.8 seconds.
 File lengths (MBytes):  RWF=   2289 Int=      0 D2E=      0 Chk=     67 Scr=      1
 Normal termination of Gaussian 16 at Mon Mar  2 06:54:14 2026.
