SLURM_NODELIST orfoz171
NUMBER OF TASKS 1
NUMBER OF CORES=112
 Entering Gaussian System, Link 0=/arf/sw/apps/gaussian/avx/g16/g16
 Initial command:
 /arf/sw/apps/gaussian/avx/g16/l1.exe "/tmp/5347241/Gau-1197188.inp" -scrdir="/tmp/5347241/"
 Entering Link 1 = /arf/sw/apps/gaussian/avx/g16/l1.exe PID=   1197189.
  
 Copyright (c) 1988-2019, Gaussian, Inc.  All Rights Reserved.
  
 This is part of the Gaussian(R) 16 program.  It is based on
 the Gaussian(R) 09 system (copyright 2009, Gaussian, Inc.),
 the Gaussian(R) 03 system (copyright 2003, Gaussian, Inc.),
 the Gaussian(R) 98 system (copyright 1998, Gaussian, Inc.),
 the Gaussian(R) 94 system (copyright 1995, Gaussian, Inc.),
 the Gaussian 92(TM) system (copyright 1992, Gaussian, Inc.),
 the Gaussian 90(TM) system (copyright 1990, Gaussian, Inc.),
 the Gaussian 88(TM) system (copyright 1988, Gaussian, Inc.),
 the Gaussian 86(TM) system (copyright 1986, Carnegie Mellon
 University), and the Gaussian 82(TM) system (copyright 1983,
 Carnegie Mellon University). Gaussian is a federally registered
 trademark of Gaussian, Inc.
  
 This software contains proprietary and confidential information,
 including trade secrets, belonging to Gaussian, Inc.
  
 This software is provided under written license and may be
 used, copied, transmitted, or stored only in accord with that
 written license.
  
 The following legend is applicable only to US Government
 contracts under FAR:
  
                    RESTRICTED RIGHTS LEGEND
  
 Use, reproduction and disclosure by the US Government is
 subject to restrictions as set forth in subparagraphs (a)
 and (c) of the Commercial Computer Software - Restricted
 Rights clause in FAR 52.227-19.
  
 Gaussian, Inc.
 340 Quinnipiac St., Bldg. 40, Wallingford CT 06492
  
  
 ---------------------------------------------------------------
 Warning -- This program may not be used in any manner that
 competes with the business of Gaussian, Inc. or will provide
 assistance to any competitor of Gaussian, Inc.  The licensee
 of this program is prohibited from giving any competitor of
 Gaussian, Inc. access to this program.  By using this program,
 the user acknowledges that Gaussian, Inc. is engaged in the
 business of creating and licensing software in the field of
 computational chemistry and represents and warrants to the
 licensee that it is not a competitor of Gaussian, Inc. and that
 it will not use this program in any manner prohibited above.
 ---------------------------------------------------------------
  

 Cite this work as:
 Gaussian 16, Revision C.01,
 M. J. Frisch, G. W. Trucks, H. B. Schlegel, G. E. Scuseria, 
 M. A. Robb, J. R. Cheeseman, G. Scalmani, V. Barone, 
 G. A. Petersson, H. Nakatsuji, X. Li, M. Caricato, A. V. Marenich, 
 J. Bloino, B. G. Janesko, R. Gomperts, B. Mennucci, H. P. Hratchian, 
 J. V. Ortiz, A. F. Izmaylov, J. L. Sonnenberg, D. Williams-Young, 
 F. Ding, F. Lipparini, F. Egidi, J. Goings, B. Peng, A. Petrone, 
 T. Henderson, D. Ranasinghe, V. G. Zakrzewski, J. Gao, N. Rega, 
 G. Zheng, W. Liang, M. Hada, M. Ehara, K. Toyota, R. Fukuda, 
 J. Hasegawa, M. Ishida, T. Nakajima, Y. Honda, O. Kitao, H. Nakai, 
 T. Vreven, K. Throssell, J. A. Montgomery, Jr., J. E. Peralta, 
 F. Ogliaro, M. J. Bearpark, J. J. Heyd, E. N. Brothers, K. N. Kudin, 
 V. N. Staroverov, T. A. Keith, R. Kobayashi, J. Normand, 
 K. Raghavachari, A. P. Rendell, J. C. Burant, S. S. Iyengar, 
 J. Tomasi, M. Cossi, J. M. Millam, M. Klene, C. Adamo, R. Cammi, 
 J. W. Ochterski, R. L. Martin, K. Morokuma, O. Farkas, 
 J. B. Foresman, and D. J. Fox, Gaussian, Inc., Wallingford CT, 2019.
 
 ******************************************
 Gaussian 16:  ES64L-G16RevC.01  3-Jul-2019
                 2-Mar-2026 
 ******************************************
 %nprocshared=112
 Will use up to  112 processors via shared memory.
 %mem=10GB
 %chk=Tucatinib.chk
 ----------------------------------------------------------------------
 # opt freq b3lyp/6-311++g(d,p) scrf=(pcm,solvent=water) geom=connectiv
 ity
 ----------------------------------------------------------------------
 1/18=20,19=15,26=3,38=1,57=2/1,3;
 2/9=110,12=2,17=6,18=5,40=1/2;
 3/5=4,6=6,7=1111,11=2,25=1,30=1,70=2201,71=1,72=1,74=-5/1,2,3;
 4//1;
 5/5=2,38=5,53=1/2;
 6/7=2,8=2,9=2,10=2,28=1/1;
 7//1,2,3,16;
 1/18=20,19=15,26=3/3(2);
 2/9=110/2;
 99//99;
 2/9=110/2;
 3/5=4,6=6,7=1111,11=2,25=1,30=1,70=2205,71=1,72=1,74=-5/1,2,3;
 4/5=5,16=3,69=1/1;
 5/5=2,38=5,53=1/2;
 7//1,2,3,16;
 1/18=20,19=15,26=3/3(-5);
 2/9=110/2;
 6/7=2,8=2,9=2,10=2,19=2,28=1/1;
 99/9=1/99;
 --------
 51039094
 --------
 Symbolic Z-matrix:
 Charge =  0 Multiplicity = 1
 O                    -4.6626   -4.0854   -0.3931 
 O                     4.1538    2.1769   -0.091 
 N                    -2.9639   -2.6748    0.1875 
 N                    -5.1662   -1.8611   -0.2721 
 N                    -1.3089    1.4551   -0.7999 
 N                    -4.5809    3.6197    0.5186 
 N                    -2.2731    3.5051   -0.1652 
 N                     6.6365   -1.0903   -0.1861 
 N                     5.3856   -2.3562    1.1464 
 N                     7.3092   -2.2638   -0.0845 
 C                    -2.3963   -4.0323    0.0877 
 C                    -3.6147   -4.9416    0.0436 
 C                    -1.5164   -4.3075    1.3022 
 C                    -1.5739   -4.1153   -1.2017 
 C                    -4.2102   -2.8226   -0.1424 
 C                    -5.0118   -0.4839   -0.0752 
 C                    -3.637     1.51     -0.1217 
 C                    -3.7859    0.1265   -0.3209 
 C                    -6.0835    0.2834    0.3675 
 C                    -4.7121    2.2957    0.325 
 C                    -2.439     2.1816   -0.3488 
 C                    -5.9275    1.6587    0.5632 
 C                     0.0706    1.6398   -0.6169 
 C                     1.9159    2.4254    0.7301 
 C                     0.5451    2.2428    0.5479 
 C                     2.8121    2.0052   -0.2526 
 C                     0.9668    1.2198   -1.5997 
 C                     2.3376    1.4024   -1.4177 
 C                    -3.3687    4.1524    0.2629 
 C                     2.4061    3.0735    1.9827 
 C                     4.9484    1.0658   -0.0927 
 C                     4.6091   -0.0375    0.6041 
 C                     5.4657   -1.175     0.5757 
 C                     6.1708    1.1267   -0.8762 
 C                     6.9804    0.056    -0.9048 
 C                     6.519    -2.9752    0.7181 
 H                    -3.8907   -5.3418    1.0256 
 H                    -3.5039   -5.7775   -0.6541 
 H                    -2.0804   -4.1912    2.2348 
 H                    -1.1113   -5.3247    1.2752 
 H                    -0.6754   -3.6062    1.3465 
 H                    -1.1388   -5.1124   -1.329 
 H                    -2.1889   -3.9003   -2.0832 
 H                    -0.7559   -3.3858   -1.1933 
 H                    -6.1252   -2.1678   -0.4064 
 H                    -2.9556   -0.4543   -0.7061 
 H                    -7.0498   -0.1734    0.5664 
 H                    -6.782     2.2367    0.9103 
 H                    -1.5293    0.8142   -1.5573 
 H                    -0.1454    2.5596    1.3258 
 H                     0.6105    0.751    -2.5135 
 H                     3.0208    1.0789   -2.1985 
 H                    -3.2695    5.2194    0.4208 
 H                     1.5813    3.4156    2.6169 
 H                     3.0189    3.9495    1.7451 
 H                     3.0029    2.3659    2.5674 
 H                     3.7089   -0.0941    1.2061 
 H                     6.409     2.0311   -1.4234 
 H                     7.9055    0.0332   -1.4675 
 H                     6.7812   -3.9838    1.0007 
 

 GradGradGradGradGradGradGradGradGradGradGradGradGradGradGradGradGradGrad
 Berny optimization.
 Initialization pass.
                           ----------------------------
                           !    Initial Parameters    !
                           ! (Angstroms and Degrees)  !
 --------------------------                            --------------------------
 ! Name  Definition              Value          Derivative Info.                !
 --------------------------------------------------------------------------------
 ! R1    R(1,12)                 1.4219         estimate D2E/DX2                !
 ! R2    R(1,15)                 1.3646         estimate D2E/DX2                !
 ! R3    R(2,26)                 1.3623         estimate D2E/DX2                !
 ! R4    R(2,31)                 1.366          estimate D2E/DX2                !
 ! R5    R(3,11)                 1.4748         estimate D2E/DX2                !
 ! R6    R(3,15)                 1.2977         estimate D2E/DX2                !
 ! R7    R(4,15)                 1.3621         estimate D2E/DX2                !
 ! R8    R(4,16)                 1.3997         estimate D2E/DX2                !
 ! R9    R(4,45)                 1.0158         estimate D2E/DX2                !
 ! R10   R(5,21)                 1.4172         estimate D2E/DX2                !
 ! R11   R(5,23)                 1.4038         estimate D2E/DX2                !
 ! R12   R(5,49)                 1.0164         estimate D2E/DX2                !
 ! R13   R(6,20)                 1.3445         estimate D2E/DX2                !
 ! R14   R(6,29)                 1.3485         estimate D2E/DX2                !
 ! R15   R(7,21)                 1.3464         estimate D2E/DX2                !
 ! R16   R(7,29)                 1.3426         estimate D2E/DX2                !
 ! R17   R(8,10)                 1.3564         estimate D2E/DX2                !
 ! R18   R(8,33)                 1.3994         estimate D2E/DX2                !
 ! R19   R(8,35)                 1.396          estimate D2E/DX2                !
 ! R20   R(9,33)                 1.3143         estimate D2E/DX2                !
 ! R21   R(9,36)                 1.3606         estimate D2E/DX2                !
 ! R22   R(10,36)                1.3322         estimate D2E/DX2                !
 ! R23   R(11,12)                1.5209         estimate D2E/DX2                !
 ! R24   R(11,13)                1.5248         estimate D2E/DX2                !
 ! R25   R(11,14)                1.5316         estimate D2E/DX2                !
 ! R26   R(12,37)                1.0957         estimate D2E/DX2                !
 ! R27   R(12,38)                1.0944         estimate D2E/DX2                !
 ! R28   R(13,39)                1.0961         estimate D2E/DX2                !
 ! R29   R(13,40)                1.0952         estimate D2E/DX2                !
 ! R30   R(13,41)                1.0959         estimate D2E/DX2                !
 ! R31   R(14,42)                1.0953         estimate D2E/DX2                !
 ! R32   R(14,43)                1.0961         estimate D2E/DX2                !
 ! R33   R(14,44)                1.0961         estimate D2E/DX2                !
 ! R34   R(16,18)                1.3913         estimate D2E/DX2                !
 ! R35   R(16,19)                1.3904         estimate D2E/DX2                !
 ! R36   R(17,18)                1.4057         estimate D2E/DX2                !
 ! R37   R(17,20)                1.4045         estimate D2E/DX2                !
 ! R38   R(17,21)                1.3921         estimate D2E/DX2                !
 ! R39   R(18,46)                1.084          estimate D2E/DX2                !
 ! R40   R(19,22)                1.3979         estimate D2E/DX2                !
 ! R41   R(19,47)                1.0872         estimate D2E/DX2                !
 ! R42   R(20,22)                1.3927         estimate D2E/DX2                !
 ! R43   R(22,48)                1.0885         estimate D2E/DX2                !
 ! R44   R(23,25)                1.3948         estimate D2E/DX2                !
 ! R45   R(23,27)                1.3948         estimate D2E/DX2                !
 ! R46   R(24,25)                1.3949         estimate D2E/DX2                !
 ! R47   R(24,26)                1.3948         estimate D2E/DX2                !
 ! R48   R(24,30)                1.4931         estimate D2E/DX2                !
 ! R49   R(25,50)                1.0873         estimate D2E/DX2                !
 ! R50   R(26,28)                1.395          estimate D2E/DX2                !
 ! R51   R(27,28)                1.3948         estimate D2E/DX2                !
 ! R52   R(27,51)                1.0871         estimate D2E/DX2                !
 ! R53   R(28,52)                1.0868         estimate D2E/DX2                !
 ! R54   R(29,53)                1.0832         estimate D2E/DX2                !
 ! R55   R(30,54)                1.0952         estimate D2E/DX2                !
 ! R56   R(30,55)                1.0952         estimate D2E/DX2                !
 ! R57   R(30,56)                1.0949         estimate D2E/DX2                !
 ! R58   R(31,32)                1.3483         estimate D2E/DX2                !
 ! R59   R(31,34)                1.4532         estimate D2E/DX2                !
 ! R60   R(32,33)                1.4242         estimate D2E/DX2                !
 ! R61   R(32,57)                1.0844         estimate D2E/DX2                !
 ! R62   R(34,35)                1.3426         estimate D2E/DX2                !
 ! R63   R(34,58)                1.0836         estimate D2E/DX2                !
 ! R64   R(35,59)                1.083          estimate D2E/DX2                !
 ! R65   R(36,60)                1.0798         estimate D2E/DX2                !
 ! A1    A(12,1,15)            104.8609         estimate D2E/DX2                !
 ! A2    A(26,2,31)            118.0507         estimate D2E/DX2                !
 ! A3    A(11,3,15)            104.3353         estimate D2E/DX2                !
 ! A4    A(15,4,16)            127.1371         estimate D2E/DX2                !
 ! A5    A(15,4,45)            117.5224         estimate D2E/DX2                !
 ! A6    A(16,4,45)            114.823          estimate D2E/DX2                !
 ! A7    A(21,5,23)            132.4296         estimate D2E/DX2                !
 ! A8    A(21,5,49)            112.8016         estimate D2E/DX2                !
 ! A9    A(23,5,49)            113.1547         estimate D2E/DX2                !
 ! A10   A(20,6,29)            116.7058         estimate D2E/DX2                !
 ! A11   A(21,7,29)            114.6354         estimate D2E/DX2                !
 ! A12   A(10,8,33)            108.7706         estimate D2E/DX2                !
 ! A13   A(10,8,35)            128.8128         estimate D2E/DX2                !
 ! A14   A(33,8,35)            122.4166         estimate D2E/DX2                !
 ! A15   A(33,9,36)            102.7926         estimate D2E/DX2                !
 ! A16   A(8,10,36)            102.2953         estimate D2E/DX2                !
 ! A17   A(3,11,12)            104.1204         estimate D2E/DX2                !
 ! A18   A(3,11,13)            109.5318         estimate D2E/DX2                !
 ! A19   A(3,11,14)            108.2711         estimate D2E/DX2                !
 ! A20   A(12,11,13)           112.1769         estimate D2E/DX2                !
 ! A21   A(12,11,14)           111.9216         estimate D2E/DX2                !
 ! A22   A(13,11,14)           110.5431         estimate D2E/DX2                !
 ! A23   A(1,12,11)            103.8439         estimate D2E/DX2                !
 ! A24   A(1,12,37)            108.0309         estimate D2E/DX2                !
 ! A25   A(1,12,38)            109.7989         estimate D2E/DX2                !
 ! A26   A(11,12,37)           113.2128         estimate D2E/DX2                !
 ! A27   A(11,12,38)           113.204          estimate D2E/DX2                !
 ! A28   A(37,12,38)           108.534          estimate D2E/DX2                !
 ! A29   A(11,13,39)           111.2001         estimate D2E/DX2                !
 ! A30   A(11,13,40)           111.1882         estimate D2E/DX2                !
 ! A31   A(11,13,41)           111.0715         estimate D2E/DX2                !
 ! A32   A(39,13,40)           108.0501         estimate D2E/DX2                !
 ! A33   A(39,13,41)           107.0123         estimate D2E/DX2                !
 ! A34   A(40,13,41)           108.1485         estimate D2E/DX2                !
 ! A35   A(11,14,42)           111.1293         estimate D2E/DX2                !
 ! A36   A(11,14,43)           111.4155         estimate D2E/DX2                !
 ! A37   A(11,14,44)           110.9905         estimate D2E/DX2                !
 ! A38   A(42,14,43)           107.9368         estimate D2E/DX2                !
 ! A39   A(42,14,44)           108.078          estimate D2E/DX2                !
 ! A40   A(43,14,44)           107.1181         estimate D2E/DX2                !
 ! A41   A(1,15,3)             118.0669         estimate D2E/DX2                !
 ! A42   A(1,15,4)             113.7697         estimate D2E/DX2                !
 ! A43   A(3,15,4)             128.1626         estimate D2E/DX2                !
 ! A44   A(4,16,18)            120.2651         estimate D2E/DX2                !
 ! A45   A(4,16,19)            120.1805         estimate D2E/DX2                !
 ! A46   A(18,16,19)           119.5545         estimate D2E/DX2                !
 ! A47   A(18,17,20)           120.9685         estimate D2E/DX2                !
 ! A48   A(18,17,21)           122.8801         estimate D2E/DX2                !
 ! A49   A(20,17,21)           116.1514         estimate D2E/DX2                !
 ! A50   A(16,18,17)           120.0069         estimate D2E/DX2                !
 ! A51   A(16,18,46)           120.1701         estimate D2E/DX2                !
 ! A52   A(17,18,46)           119.7721         estimate D2E/DX2                !
 ! A53   A(16,19,22)           120.0985         estimate D2E/DX2                !
 ! A54   A(16,19,47)           120.7607         estimate D2E/DX2                !
 ! A55   A(22,19,47)           119.1408         estimate D2E/DX2                !
 ! A56   A(6,20,17)            121.465          estimate D2E/DX2                !
 ! A57   A(6,20,22)            120.7259         estimate D2E/DX2                !
 ! A58   A(17,20,22)           117.8091         estimate D2E/DX2                !
 ! A59   A(5,21,7)             116.683          estimate D2E/DX2                !
 ! A60   A(5,21,17)            119.3976         estimate D2E/DX2                !
 ! A61   A(7,21,17)            123.9194         estimate D2E/DX2                !
 ! A62   A(19,22,20)           121.5625         estimate D2E/DX2                !
 ! A63   A(19,22,48)           118.6516         estimate D2E/DX2                !
 ! A64   A(20,22,48)           119.7859         estimate D2E/DX2                !
 ! A65   A(5,23,25)            120.003          estimate D2E/DX2                !
 ! A66   A(5,23,27)            119.9959         estimate D2E/DX2                !
 ! A67   A(25,23,27)           120.0011         estimate D2E/DX2                !
 ! A68   A(25,24,26)           119.9988         estimate D2E/DX2                !
 ! A69   A(25,24,30)           119.2784         estimate D2E/DX2                !
 ! A70   A(26,24,30)           120.7227         estimate D2E/DX2                !
 ! A71   A(23,25,24)           119.9997         estimate D2E/DX2                !
 ! A72   A(23,25,50)           120.4886         estimate D2E/DX2                !
 ! A73   A(24,25,50)           119.5049         estimate D2E/DX2                !
 ! A74   A(2,26,24)            120.7495         estimate D2E/DX2                !
 ! A75   A(2,26,28)            119.2457         estimate D2E/DX2                !
 ! A76   A(24,26,28)           120.0047         estimate D2E/DX2                !
 ! A77   A(23,27,28)           120.0065         estimate D2E/DX2                !
 ! A78   A(23,27,51)           120.7678         estimate D2E/DX2                !
 ! A79   A(28,27,51)           119.2255         estimate D2E/DX2                !
 ! A80   A(26,28,27)           119.9891         estimate D2E/DX2                !
 ! A81   A(26,28,52)           120.988          estimate D2E/DX2                !
 ! A82   A(27,28,52)           119.0195         estimate D2E/DX2                !
 ! A83   A(6,29,7)             127.1231         estimate D2E/DX2                !
 ! A84   A(6,29,53)            116.3467         estimate D2E/DX2                !
 ! A85   A(7,29,53)            116.5302         estimate D2E/DX2                !
 ! A86   A(24,30,54)           111.97           estimate D2E/DX2                !
 ! A87   A(24,30,55)           110.4202         estimate D2E/DX2                !
 ! A88   A(24,30,56)           110.2701         estimate D2E/DX2                !
 ! A89   A(54,30,55)           107.2879         estimate D2E/DX2                !
 ! A90   A(54,30,56)           107.6456         estimate D2E/DX2                !
 ! A91   A(55,30,56)           109.1361         estimate D2E/DX2                !
 ! A92   A(2,31,32)            121.2362         estimate D2E/DX2                !
 ! A93   A(2,31,34)            117.1224         estimate D2E/DX2                !
 ! A94   A(32,31,34)           121.6414         estimate D2E/DX2                !
 ! A95   A(31,32,33)           119.4644         estimate D2E/DX2                !
 ! A96   A(31,32,57)           122.5817         estimate D2E/DX2                !
 ! A97   A(33,32,57)           117.9469         estimate D2E/DX2                !
 ! A98   A(8,33,9)             109.9849         estimate D2E/DX2                !
 ! A99   A(8,33,32)            117.7563         estimate D2E/DX2                !
 ! A100  A(9,33,32)            132.2588         estimate D2E/DX2                !
 ! A101  A(31,34,35)           119.0311         estimate D2E/DX2                !
 ! A102  A(31,34,58)           119.4828         estimate D2E/DX2                !
 ! A103  A(35,34,58)           121.4861         estimate D2E/DX2                !
 ! A104  A(8,35,34)            119.6903         estimate D2E/DX2                !
 ! A105  A(8,35,59)            117.4273         estimate D2E/DX2                !
 ! A106  A(34,35,59)           122.8825         estimate D2E/DX2                !
 ! A107  A(9,36,10)            116.1566         estimate D2E/DX2                !
 ! A108  A(9,36,60)            123.0153         estimate D2E/DX2                !
 ! A109  A(10,36,60)           120.8282         estimate D2E/DX2                !
 ! D1    D(15,1,12,11)         -19.34           estimate D2E/DX2                !
 ! D2    D(15,1,12,37)         101.1324         estimate D2E/DX2                !
 ! D3    D(15,1,12,38)        -140.6726         estimate D2E/DX2                !
 ! D4    D(12,1,15,3)           10.7372         estimate D2E/DX2                !
 ! D5    D(12,1,15,4)         -168.9547         estimate D2E/DX2                !
 ! D6    D(31,2,26,24)         120.0022         estimate D2E/DX2                !
 ! D7    D(31,2,26,28)         -60.0526         estimate D2E/DX2                !
 ! D8    D(26,2,31,32)         -45.0043         estimate D2E/DX2                !
 ! D9    D(26,2,31,34)         134.9991         estimate D2E/DX2                !
 ! D10   D(15,3,11,12)         -15.5406         estimate D2E/DX2                !
 ! D11   D(15,3,11,13)        -135.6885         estimate D2E/DX2                !
 ! D12   D(15,3,11,14)         103.6991         estimate D2E/DX2                !
 ! D13   D(11,3,15,1)            3.7051         estimate D2E/DX2                !
 ! D14   D(11,3,15,4)         -176.6535         estimate D2E/DX2                !
 ! D15   D(16,4,15,1)          179.6504         estimate D2E/DX2                !
 ! D16   D(16,4,15,3)           -0.0039         estimate D2E/DX2                !
 ! D17   D(45,4,15,1)            8.3754         estimate D2E/DX2                !
 ! D18   D(45,4,15,3)         -171.2788         estimate D2E/DX2                !
 ! D19   D(15,4,16,18)          30.0174         estimate D2E/DX2                !
 ! D20   D(15,4,16,19)        -149.9847         estimate D2E/DX2                !
 ! D21   D(45,4,16,18)        -158.5064         estimate D2E/DX2                !
 ! D22   D(45,4,16,19)          21.4915         estimate D2E/DX2                !
 ! D23   D(23,5,21,7)           29.9976         estimate D2E/DX2                !
 ! D24   D(23,5,21,17)        -149.969          estimate D2E/DX2                !
 ! D25   D(49,5,21,7)         -134.1916         estimate D2E/DX2                !
 ! D26   D(49,5,21,17)          45.8418         estimate D2E/DX2                !
 ! D27   D(21,5,23,25)          30.0054         estimate D2E/DX2                !
 ! D28   D(21,5,23,27)        -150.0203         estimate D2E/DX2                !
 ! D29   D(49,5,23,25)        -165.8479         estimate D2E/DX2                !
 ! D30   D(49,5,23,27)          14.1265         estimate D2E/DX2                !
 ! D31   D(29,6,20,17)          -0.0034         estimate D2E/DX2                !
 ! D32   D(29,6,20,22)        -179.9911         estimate D2E/DX2                !
 ! D33   D(20,6,29,7)           -0.0121         estimate D2E/DX2                !
 ! D34   D(20,6,29,53)         180.0            estimate D2E/DX2                !
 ! D35   D(29,7,21,5)         -179.9674         estimate D2E/DX2                !
 ! D36   D(29,7,21,17)          -0.0024         estimate D2E/DX2                !
 ! D37   D(21,7,29,6)            0.0149         estimate D2E/DX2                !
 ! D38   D(21,7,29,53)        -179.9972         estimate D2E/DX2                !
 ! D39   D(33,8,10,36)           0.0087         estimate D2E/DX2                !
 ! D40   D(35,8,10,36)        -179.9876         estimate D2E/DX2                !
 ! D41   D(10,8,33,9)           -0.0032         estimate D2E/DX2                !
 ! D42   D(10,8,33,32)         179.9881         estimate D2E/DX2                !
 ! D43   D(35,8,33,9)          179.9934         estimate D2E/DX2                !
 ! D44   D(35,8,33,32)          -0.0153         estimate D2E/DX2                !
 ! D45   D(10,8,35,34)        -179.9955         estimate D2E/DX2                !
 ! D46   D(10,8,35,59)           0.0133         estimate D2E/DX2                !
 ! D47   D(33,8,35,34)           0.0086         estimate D2E/DX2                !
 ! D48   D(33,8,35,59)        -179.9825         estimate D2E/DX2                !
 ! D49   D(36,9,33,8)           -0.0038         estimate D2E/DX2                !
 ! D50   D(36,9,33,32)        -179.9935         estimate D2E/DX2                !
 ! D51   D(33,9,36,10)           0.0103         estimate D2E/DX2                !
 ! D52   D(33,9,36,60)        -179.9939         estimate D2E/DX2                !
 ! D53   D(8,10,36,9)           -0.0121         estimate D2E/DX2                !
 ! D54   D(8,10,36,60)         179.992          estimate D2E/DX2                !
 ! D55   D(3,11,12,1)           21.6005         estimate D2E/DX2                !
 ! D56   D(3,11,12,37)         -95.3074         estimate D2E/DX2                !
 ! D57   D(3,11,12,38)         140.6261         estimate D2E/DX2                !
 ! D58   D(13,11,12,1)         139.9488         estimate D2E/DX2                !
 ! D59   D(13,11,12,37)         23.0408         estimate D2E/DX2                !
 ! D60   D(13,11,12,38)       -101.0257         estimate D2E/DX2                !
 ! D61   D(14,11,12,1)         -95.1249         estimate D2E/DX2                !
 ! D62   D(14,11,12,37)        147.9672         estimate D2E/DX2                !
 ! D63   D(14,11,12,38)         23.9006         estimate D2E/DX2                !
 ! D64   D(3,11,13,39)          57.3388         estimate D2E/DX2                !
 ! D65   D(3,11,13,40)         177.7891         estimate D2E/DX2                !
 ! D66   D(3,11,13,41)         -61.7229         estimate D2E/DX2                !
 ! D67   D(12,11,13,39)        -57.7572         estimate D2E/DX2                !
 ! D68   D(12,11,13,40)         62.6931         estimate D2E/DX2                !
 ! D69   D(12,11,13,41)       -176.8189         estimate D2E/DX2                !
 ! D70   D(14,11,13,39)        176.5601         estimate D2E/DX2                !
 ! D71   D(14,11,13,40)        -62.9895         estimate D2E/DX2                !
 ! D72   D(14,11,13,41)         57.4985         estimate D2E/DX2                !
 ! D73   D(3,11,14,42)        -179.3189         estimate D2E/DX2                !
 ! D74   D(3,11,14,43)         -58.9065         estimate D2E/DX2                !
 ! D75   D(3,11,14,44)          60.3766         estimate D2E/DX2                !
 ! D76   D(12,11,14,42)        -65.1264         estimate D2E/DX2                !
 ! D77   D(12,11,14,43)         55.2861         estimate D2E/DX2                !
 ! D78   D(12,11,14,44)        174.5691         estimate D2E/DX2                !
 ! D79   D(13,11,14,42)         60.6999         estimate D2E/DX2                !
 ! D80   D(13,11,14,43)       -178.8877         estimate D2E/DX2                !
 ! D81   D(13,11,14,44)        -59.6046         estimate D2E/DX2                !
 ! D82   D(4,16,18,17)         179.9828         estimate D2E/DX2                !
 ! D83   D(4,16,18,46)           2.5836         estimate D2E/DX2                !
 ! D84   D(19,16,18,17)         -0.0152         estimate D2E/DX2                !
 ! D85   D(19,16,18,46)       -177.4144         estimate D2E/DX2                !
 ! D86   D(4,16,19,22)        -179.9817         estimate D2E/DX2                !
 ! D87   D(4,16,19,47)           0.0582         estimate D2E/DX2                !
 ! D88   D(18,16,19,22)          0.0162         estimate D2E/DX2                !
 ! D89   D(18,16,19,47)       -179.9439         estimate D2E/DX2                !
 ! D90   D(20,17,18,16)          0.0064         estimate D2E/DX2                !
 ! D91   D(20,17,18,46)        177.416          estimate D2E/DX2                !
 ! D92   D(21,17,18,16)       -179.9941         estimate D2E/DX2                !
 ! D93   D(21,17,18,46)         -2.5845         estimate D2E/DX2                !
 ! D94   D(18,17,20,6)        -179.9866         estimate D2E/DX2                !
 ! D95   D(18,17,20,22)          0.0014         estimate D2E/DX2                !
 ! D96   D(21,17,20,6)           0.0138         estimate D2E/DX2                !
 ! D97   D(21,17,20,22)       -179.9982         estimate D2E/DX2                !
 ! D98   D(18,17,21,5)          -0.0463         estimate D2E/DX2                !
 ! D99   D(18,17,21,7)         179.9896         estimate D2E/DX2                !
 ! D100  D(20,17,21,5)         179.9532         estimate D2E/DX2                !
 ! D101  D(20,17,21,7)          -0.0109         estimate D2E/DX2                !
 ! D102  D(16,19,22,20)         -0.0085         estimate D2E/DX2                !
 ! D103  D(16,19,22,48)       -179.9981         estimate D2E/DX2                !
 ! D104  D(47,19,22,20)        179.9522         estimate D2E/DX2                !
 ! D105  D(47,19,22,48)         -0.0374         estimate D2E/DX2                !
 ! D106  D(6,20,22,19)         179.9878         estimate D2E/DX2                !
 ! D107  D(6,20,22,48)          -0.0228         estimate D2E/DX2                !
 ! D108  D(17,20,22,19)         -0.0003         estimate D2E/DX2                !
 ! D109  D(17,20,22,48)        179.9891         estimate D2E/DX2                !
 ! D110  D(5,23,25,24)         179.9529         estimate D2E/DX2                !
 ! D111  D(5,23,25,50)           0.9022         estimate D2E/DX2                !
 ! D112  D(27,23,25,24)         -0.0215         estimate D2E/DX2                !
 ! D113  D(27,23,25,50)       -179.0722         estimate D2E/DX2                !
 ! D114  D(5,23,27,28)        -179.957          estimate D2E/DX2                !
 ! D115  D(5,23,27,51)           0.1999         estimate D2E/DX2                !
 ! D116  D(25,23,27,28)          0.0173         estimate D2E/DX2                !
 ! D117  D(25,23,27,51)       -179.8258         estimate D2E/DX2                !
 ! D118  D(26,24,25,23)          0.0109         estimate D2E/DX2                !
 ! D119  D(26,24,25,50)        179.0709         estimate D2E/DX2                !
 ! D120  D(30,24,25,23)        179.96           estimate D2E/DX2                !
 ! D121  D(30,24,25,50)         -0.9799         estimate D2E/DX2                !
 ! D122  D(25,24,26,2)         179.9487         estimate D2E/DX2                !
 ! D123  D(25,24,26,28)          0.0039         estimate D2E/DX2                !
 ! D124  D(30,24,26,2)           0.0002         estimate D2E/DX2                !
 ! D125  D(30,24,26,28)       -179.9445         estimate D2E/DX2                !
 ! D126  D(25,24,30,54)         -4.3965         estimate D2E/DX2                !
 ! D127  D(25,24,30,55)       -123.8768         estimate D2E/DX2                !
 ! D128  D(25,24,30,56)        115.4339         estimate D2E/DX2                !
 ! D129  D(26,24,30,54)        175.5523         estimate D2E/DX2                !
 ! D130  D(26,24,30,55)         56.072          estimate D2E/DX2                !
 ! D131  D(26,24,30,56)        -64.6173         estimate D2E/DX2                !
 ! D132  D(2,26,28,27)        -179.9536         estimate D2E/DX2                !
 ! D133  D(2,26,28,52)          -0.6255         estimate D2E/DX2                !
 ! D134  D(24,26,28,27)         -0.008          estimate D2E/DX2                !
 ! D135  D(24,26,28,52)        179.3201         estimate D2E/DX2                !
 ! D136  D(23,27,28,26)         -0.0025         estimate D2E/DX2                !
 ! D137  D(23,27,28,52)       -179.3439         estimate D2E/DX2                !
 ! D138  D(51,27,28,26)        179.8429         estimate D2E/DX2                !
 ! D139  D(51,27,28,52)          0.5016         estimate D2E/DX2                !
 ! D140  D(2,31,32,33)        -179.9988         estimate D2E/DX2                !
 ! D141  D(2,31,32,57)          -0.9864         estimate D2E/DX2                !
 ! D142  D(34,31,32,33)         -0.0023         estimate D2E/DX2                !
 ! D143  D(34,31,32,57)        179.0101         estimate D2E/DX2                !
 ! D144  D(2,31,34,35)         179.992          estimate D2E/DX2                !
 ! D145  D(2,31,34,58)          -0.0389         estimate D2E/DX2                !
 ! D146  D(32,31,34,35)         -0.0046         estimate D2E/DX2                !
 ! D147  D(32,31,34,58)        179.9645         estimate D2E/DX2                !
 ! D148  D(31,32,33,8)           0.0118         estimate D2E/DX2                !
 ! D149  D(31,32,33,9)        -179.9991         estimate D2E/DX2                !
 ! D150  D(57,32,33,8)        -179.0461         estimate D2E/DX2                !
 ! D151  D(57,32,33,9)           0.9429         estimate D2E/DX2                !
 ! D152  D(31,34,35,8)           0.0015         estimate D2E/DX2                !
 ! D153  D(31,34,35,59)        179.9921         estimate D2E/DX2                !
 ! D154  D(58,34,35,8)        -179.967          estimate D2E/DX2                !
 ! D155  D(58,34,35,59)          0.0236         estimate D2E/DX2                !
 --------------------------------------------------------------------------------
 Trust Radius=3.00D-01 FncErr=1.00D-07 GrdErr=1.00D-06 EigMax=2.50D+02 EigMin=1.00D-04
 Number of steps in this run=    339 maximum allowed number of steps=    360.
 GradGradGradGradGradGradGradGradGradGradGradGradGradGradGradGradGradGrad

 Stoichiometry    C26H24N8O2
 Framework group  C1[X(C26H24N8O2)]
 Deg. of freedom   174
 Full point group                 C1      NOp   1
 Largest Abelian subgroup         C1      NOp   1
 Largest concise Abelian subgroup C1      NOp   1
                         Standard orientation:                         
 ---------------------------------------------------------------------
 Center     Atomic      Atomic             Coordinates (Angstroms)
 Number     Number       Type             X           Y           Z
 ---------------------------------------------------------------------
      1          8           0        4.752750    3.859340   -0.363590
      2          8           0       -4.236601   -2.154735   -0.120601
      3          7           0        3.014910    2.491626    0.203632
      4          7           0        5.193475    1.620674   -0.264086
      5          7           0        1.244359   -1.580312   -0.823269
      6          7           0        4.453907   -3.848824    0.473873
      7          7           0        2.150342   -3.662678   -0.208474
      8          7           0       -6.626266    1.181871   -0.183889
      9          7           0       -5.340379    2.399139    1.160569
     10          7           0       -7.265654    2.372822   -0.070899
     11          6           0        2.485790    3.865475    0.116989
     12          6           0        3.729327    4.740474    0.081480
     13          6           0        1.613829    4.153643    1.334204
     14          6           0        1.666227    3.984023   -1.171439
     15          6           0        4.264923    2.607429   -0.125001
     16          6           0        5.000314    0.246537   -0.080438
     17          6           0        3.569898   -1.707303   -0.145949
     18          6           0        3.757739   -0.326692   -0.331836
     19          6           0        6.049915   -0.554876    0.354704
     20          6           0        4.622378   -2.527242    0.293015
     21          6           0        2.353484   -2.342670   -0.379342
     22          6           0        5.855208   -1.927057    0.537171
     23          6           0       -0.139821   -1.727832   -0.641866
     24          6           0       -2.006699   -2.474074    0.697760
     25          6           0       -0.631275   -2.328416    0.517138
     26          6           0       -2.890575   -2.019350   -0.280725
     27          6           0       -1.023703   -1.273307   -1.620452
     28          6           0       -2.399127   -1.418963   -1.440030
     29          6           0        3.227216   -4.344677    0.213221
     30          6           0       -2.515129   -3.120142    1.944127
     31          6           0       -4.999586   -1.021727   -0.111491
     32          6           0       -4.629433    0.064815    0.595856
     33          6           0       -5.453646    1.226215    0.578530
     34          6           0       -6.223111   -1.040619   -0.895372
     35          6           0       -7.002224    0.052689   -0.913548
     36          6           0       -6.455835    3.053917    0.738406
     37          1           0        4.016360    5.123264    1.067251
     38          1           0        3.642212    5.585844   -0.608121
     39          1           0        2.174204    4.012525    2.265563
     40          1           0        1.237548    5.182064    1.317058
     41          1           0        0.753401    3.475918    1.371864
     42          1           0        1.259405    4.994164   -1.289070
     43          1           0        2.275044    3.760283   -2.055053
     44          1           0        0.828000    3.277809   -1.169952
     45          1           0        6.160753    1.901516   -0.395558
     46          1           0        2.944181    0.280950   -0.711311
     47          1           0        7.028673   -0.127415    0.557861
     48          1           0        6.693040   -2.532215    0.878571
     49          1           0        1.482827   -0.938611   -1.574492
     50          1           0        0.049923   -2.672019    1.291856
     51          1           0       -0.654216   -0.805951   -2.529744
     52          1           0       -3.072838   -1.068841   -2.217585
     53          1           0        3.097977   -5.409931    0.360851
     54          1           0       -1.700378   -3.491433    2.574889
     55          1           0       -3.152331   -3.976203    1.698186
     56          1           0       -3.091837   -2.401675    2.535697
     57          1           0       -3.728077    0.090234    1.198249
     58          1           0       -6.486621   -1.932638   -1.451224
     59          1           0       -7.926240    0.106958   -1.475875
     60          1           0       -6.689556    4.066735    1.030743
 ---------------------------------------------------------------------
 Rotational constants (GHZ):           0.1432714           0.0550279           0.0416860
 Standard basis: 6-311++G(d,p) (5D, 7F)
 There are   996 symmetry adapted cartesian basis functions of A   symmetry.
 There are   960 symmetry adapted basis functions of A   symmetry.
   960 basis functions,  1512 primitive gaussians,   996 cartesian basis functions
   126 alpha electrons      126 beta electrons
       nuclear repulsion energy      3534.2122732128 Hartrees.
 NAtoms=   60 NActive=   60 NUniq=   60 SFac= 1.00D+00 NAtFMM=   60 NAOKFM=T Big=T
 Integral buffers will be    131072 words long.
 Raffenetti 2 integral format.
 Two-electron integral symmetry is turned on.
 ------------------------------------------------------------------------------
 Polarizable Continuum Model (PCM)
 =================================
 Model                : PCM.
 Atomic radii         : UFF (Universal Force Field).
 Polarization charges : Total charges.
 Charge compensation  : None.
 Solution method      : On-the-fly selection.
 Cavity type          : Scaled VdW (van der Waals Surface) (Alpha=1.100).
 Cavity algorithm     : GePol (No added spheres)
                        Default sphere list used, NSphG=   60.
                        Lebedev-Laikov grids with approx.  5.0 points / Ang**2.
                        Smoothing algorithm: York/Karplus (Gamma=1.0000).
                        Polarization charges: spherical gaussians, with
                                              point-specific exponents (IZeta= 3).
                        Self-potential: point-specific (ISelfS= 7).
                        Self-field    : sphere-specific E.n sum rule (ISelfD= 2).
 1st derivatives      : Analytical E(r).r(x)/FMM algorithm (CHGder, D1EAlg=3).
                        Cavity 1st derivative terms included.
 Solvent              : Water, Eps=  78.355300 Eps(inf)=   1.777849
 ------------------------------------------------------------------------------
 One-electron integrals computed using PRISM.
 NBasis=   960 RedAO= T EigKep=  1.65D-06  NBF=   960
 NBsUse=   952 1.00D-06 EigRej=  8.16D-07 NBFU=   952
 ExpMin= 3.60D-02 ExpMax= 8.59D+03 ExpMxC= 1.30D+03 IAcc=3 IRadAn=         5 AccDes= 0.00D+00
 Harris functional with IExCor=  402 and IRadAn=       5 diagonalized for initial guess.
 HarFok:  IExCor=  402 AccDes= 0.00D+00 IRadAn=         5 IDoV= 1 UseB2=F ITyADJ=14
 ICtDFT=  3500011 ScaDFX=  1.000000  1.000000  1.000000  1.000000
 FoFCou: FMM=F IPFlag=           0 FMFlag=      100000 FMFlg1=        2001
         NFxFlg=           0 DoJE=T BraDBF=F KetDBF=T FulRan=T
         wScrn=  0.000000 ICntrl=       500 IOpCl=  0 I1Cent=   200000004 NGrid=           0
         NMat0=    1 NMatS0=      1 NMatT0=    0 NMatD0=    1 NMtDS0=    0 NMtDT0=    0
 Petite list used in FoFCou.
 Requested convergence on RMS density matrix=1.00D-08 within 128 cycles.
 Requested convergence on MAX density matrix=1.00D-06.
 Requested convergence on             energy=1.00D-06.
 No special actions if energy rises.
 Inv3:  Mode=1 IEnd=    58450188.
 Iteration    1 A*A^-1 deviation from unit magnitude is 7.11D-15 for   4410.
 Iteration    1 A*A^-1 deviation from orthogonality  is 2.21D-15 for   4400   2493.
 Iteration    1 A^-1*A deviation from unit magnitude is 7.11D-15 for   4410.
 Iteration    1 A^-1*A deviation from orthogonality  is 3.58D-15 for   4384   2542.
 Error on total polarization charges =  0.02508
 SCF Done:  E(RB3LYP) =  -1594.10155356     A.U. after   16 cycles
            NFock= 16  Conv=0.18D-08     -V/T= 2.0040

 **********************************************************************

            Population analysis using the SCF Density.

 **********************************************************************

 Orbital symmetries:
       Occupied  (A) (A) (A) (A) (A) (A) (A) (A) (A) (A) (A) (A)
                 (A) (A) (A) (A) (A) (A) (A) (A) (A) (A) (A) (A)
                 (A) (A) (A) (A) (A) (A) (A) (A) (A) (A) (A) (A)
                 (A) (A) (A) (A) (A) (A) (A) (A) (A) (A) (A) (A)
                 (A) (A) (A) (A) (A) (A) (A) (A) (A) (A) (A) (A)
                 (A) (A) (A) (A) (A) (A) (A) (A) (A) (A) (A) (A)
                 (A) (A) (A) (A) (A) (A) (A) (A) (A) (A) (A) (A)
                 (A) (A) (A) (A) (A) (A) (A) (A) (A) (A) (A) (A)
                 (A) (A) (A) (A) (A) (A) (A) (A) (A) (A) (A) (A)
                 (A) (A) (A) (A) (A) (A) (A) (A) (A) (A) (A) (A)
                 (A) (A) (A) (A) (A) (A)
       Virtual   (A) (A) (A) (A) (A) (A) (A) (A) (A) (A) (A) (A)
                 (A) (A) (A) (A) (A) (A) (A) (A) (A) (A) (A) (A)
                 (A) (A) (A) (A) (A) (A) (A) (A) (A) (A) (A) (A)
                 (A) (A) (A) (A) (A) (A) (A) (A) (A) (A) (A) (A)
                 (A) (A) (A) (A) (A) (A) (A) (A) (A) (A) (A) (A)
                 (A) (A) (A) (A) (A) (A) (A) (A) (A) (A) (A) (A)
                 (A) (A) (A) (A) (A) (A) (A) (A) (A) (A) (A) (A)
                 (A) (A) (A) (A) (A) (A) (A) (A) (A) (A) (A) (A)
                 (A) (A) (A) (A) (A) (A) (A) (A) (A) (A) (A) (A)
                 (A) (A) (A) (A) (A) (A) (A) (A) (A) (A) (A) (A)
                 (A) (A) (A) (A) (A) (A) (A) (A) (A) (A) (A) (A)
                 (A) (A) (A) (A) (A) (A) (A) (A) (A) (A) (A) (A)
                 (A) (A) (A) (A) (A) (A) (A) (A) (A) (A) (A) (A)
                 (A) (A) (A) (A) (A) (A) (A) (A) (A) (A) (A) (A)
                 (A) (A) (A) (A) (A) (A) (A) (A) (A) (A) (A) (A)
                 (A) (A) (A) (A) (A) (A) (A) (A) (A) (A) (A) (A)
                 (A) (A) (A) (A) (A) (A) (A) (A) (A) (A) (A) (A)
                 (A) (A) (A) (A) (A) (A) (A) (A) (A) (A) (A) (A)
                 (A) (A) (A) (A) (A) (A) (A) (A) (A) (A) (A) (A)
                 (A) (A) (A) (A) (A) (A) (A) (A) (A) (A) (A) (A)
                 (A) (A) (A) (A) (A) (A) (A) (A) (A) (A) (A) (A)
                 (A) (A) (A) (A) (A) (A) (A) (A) (A) (A) (A) (A)
                 (A) (A) (A) (A) (A) (A) (A) (A) (A) (A) (A) (A)
                 (A) (A) (A) (A) (A) (A) (A) (A) (A) (A) (A) (A)
                 (A) (A) (A) (A) (A) (A) (A) (A) (A) (A) (A) (A)
                 (A) (A) (A) (A) (A) (A) (A) (A) (A) (A) (A) (A)
                 (A) (A) (A) (A) (A) (A) (A) (A) (A) (A) (A) (A)
                 (A) (A) (A) (A) (A) (A) (A) (A) (A) (A) (A) (A)
                 (A) (A) (A) (A) (A) (A) (A) (A) (A) (A) (A) (A)
                 (A) (A) (A) (A) (A) (A) (A) (A) (A) (A) (A) (A)
                 (A) (A) (A) (A) (A) (A) (A) (A) (A) (A) (A) (A)
                 (A) (A) (A) (A) (A) (A) (A) (A) (A) (A) (A) (A)
                 (A) (A) (A) (A) (A) (A) (A) (A) (A) (A) (A) (A)
                 (A) (A) (A) (A) (A) (A) (A) (A) (A) (A) (A) (A)
                 (A) (A) (A) (A) (A) (A) (A) (A) (A) (A) (A) (A)
                 (A) (A) (A) (A) (A) (A) (A) (A) (A) (A) (A) (A)
                 (A) (A) (A) (A) (A) (A) (A) (A) (A) (A) (A) (A)
                 (A) (A) (A) (A) (A) (A) (A) (A) (A) (A) (A) (A)
                 (A) (A) (A) (A) (A) (A) (A) (A) (A) (A) (A) (A)
                 (A) (A) (A) (A) (A) (A) (A) (A) (A) (A) (A) (A)
                 (A) (A) (A) (A) (A) (A) (A) (A) (A) (A) (A) (A)
                 (A) (A) (A) (A) (A) (A) (A) (A) (A) (A) (A) (A)
                 (A) (A) (A) (A) (A) (A) (A) (A) (A) (A) (A) (A)
                 (A) (A) (A) (A) (A) (A) (A) (A) (A) (A) (A) (A)
                 (A) (A) (A) (A) (A) (A) (A) (A) (A) (A) (A) (A)
                 (A) (A) (A) (A) (A) (A) (A) (A) (A) (A) (A) (A)
                 (A) (A) (A) (A) (A) (A) (A) (A) (A) (A) (A) (A)
                 (A) (A) (A) (A) (A) (A) (A) (A) (A) (A) (A) (A)
                 (A) (A) (A) (A) (A) (A) (A) (A) (A) (A) (A) (A)
                 (A) (A) (A) (A) (A) (A) (A) (A) (A) (A) (A) (A)
                 (A) (A) (A) (A) (A) (A) (A) (A) (A) (A) (A) (A)
                 (A) (A) (A) (A) (A) (A) (A) (A) (A) (A) (A) (A)
                 (A) (A) (A) (A) (A) (A) (A) (A) (A) (A) (A) (A)
                 (A) (A) (A) (A) (A) (A) (A) (A) (A) (A) (A) (A)
                 (A) (A) (A) (A) (A) (A) (A) (A) (A) (A) (A) (A)
                 (A) (A) (A) (A) (A) (A) (A) (A) (A) (A) (A) (A)
                 (A) (A) (A) (A) (A) (A) (A) (A) (A) (A) (A) (A)
                 (A) (A) (A) (A) (A) (A) (A) (A) (A) (A) (A) (A)
                 (A) (A) (A) (A) (A) (A) (A) (A) (A) (A) (A) (A)
                 (A) (A) (A) (A) (A) (A) (A) (A) (A) (A) (A) (A)
                 (A) (A) (A) (A) (A) (A) (A) (A) (A) (A) (A) (A)
                 (A) (A) (A) (A) (A) (A) (A) (A) (A) (A) (A) (A)
                 (A) (A) (A) (A) (A) (A) (A) (A) (A) (A) (A) (A)
                 (A) (A) (A) (A) (A) (A) (A) (A) (A) (A) (A) (A)
                 (A) (A) (A) (A) (A) (A) (A) (A) (A) (A) (A) (A)
                 (A) (A) (A) (A) (A) (A) (A) (A) (A) (A) (A) (A)
                 (A) (A) (A) (A) (A) (A) (A) (A) (A) (A) (A) (A)
                 (A) (A) (A) (A) (A) (A) (A) (A) (A) (A) (A) (A)
                 (A) (A) (A) (A) (A) (A) (A) (A) (A) (A)
 The electronic state is 1-A.
 Alpha  occ. eigenvalues --  -19.17938 -19.17321 -14.43067 -14.36820 -14.35544
 Alpha  occ. eigenvalues --  -14.35324 -14.32740 -14.32029 -14.31997 -14.29246
 Alpha  occ. eigenvalues --  -10.30636 -10.27803 -10.26974 -10.26411 -10.24725
 Alpha  occ. eigenvalues --  -10.24706 -10.24173 -10.24015 -10.23837 -10.23004
 Alpha  occ. eigenvalues --  -10.22759 -10.22574 -10.21468 -10.20535 -10.20320
 Alpha  occ. eigenvalues --  -10.20208 -10.19955 -10.19408 -10.19360 -10.19266
 Alpha  occ. eigenvalues --  -10.18779 -10.18462 -10.18031 -10.16991 -10.16070
 Alpha  occ. eigenvalues --  -10.16065  -1.11719  -1.11162  -1.10104  -1.00700
 Alpha  occ. eigenvalues --   -0.97973  -0.95767  -0.93796  -0.91193  -0.90121
 Alpha  occ. eigenvalues --   -0.89868  -0.87472  -0.85860  -0.81314  -0.80451
 Alpha  occ. eigenvalues --   -0.79057  -0.78750  -0.78420  -0.76452  -0.75105
 Alpha  occ. eigenvalues --   -0.71212  -0.70249  -0.69361  -0.69196  -0.67377
 Alpha  occ. eigenvalues --   -0.66793  -0.66377  -0.64551  -0.63934  -0.62160
 Alpha  occ. eigenvalues --   -0.61520  -0.59981  -0.59454  -0.57010  -0.56704
 Alpha  occ. eigenvalues --   -0.55743  -0.55609  -0.54686  -0.53017  -0.52879
 Alpha  occ. eigenvalues --   -0.52667  -0.50681  -0.50098  -0.49469  -0.49116
 Alpha  occ. eigenvalues --   -0.48619  -0.47475  -0.47310  -0.46930  -0.45877
 Alpha  occ. eigenvalues --   -0.45563  -0.45354  -0.45130  -0.44864  -0.44283
 Alpha  occ. eigenvalues --   -0.43740  -0.43218  -0.42886  -0.42430  -0.42164
 Alpha  occ. eigenvalues --   -0.41774  -0.41730  -0.40952  -0.40600  -0.39490
 Alpha  occ. eigenvalues --   -0.38975  -0.38690  -0.38422  -0.37359  -0.37138
 Alpha  occ. eigenvalues --   -0.37038  -0.36985  -0.35766  -0.35473  -0.35067
 Alpha  occ. eigenvalues --   -0.34431  -0.34090  -0.32936  -0.32384  -0.31934
 Alpha  occ. eigenvalues --   -0.30716  -0.30014  -0.29263  -0.28075  -0.27414
 Alpha  occ. eigenvalues --   -0.27373  -0.26259  -0.25747  -0.25119  -0.23234
 Alpha  occ. eigenvalues --   -0.21315
 Alpha virt. eigenvalues --   -0.08391  -0.05398  -0.04385  -0.03212  -0.02462
 Alpha virt. eigenvalues --   -0.01490  -0.01240  -0.00397  -0.00086   0.00312
 Alpha virt. eigenvalues --    0.00467   0.00514   0.00906   0.01379   0.01560
 Alpha virt. eigenvalues --    0.01903   0.02139   0.02264   0.02574   0.02657
 Alpha virt. eigenvalues --    0.02873   0.03149   0.03340   0.03437   0.03679
 Alpha virt. eigenvalues --    0.03997   0.04412   0.04540   0.04827   0.05251
 Alpha virt. eigenvalues --    0.05366   0.05531   0.05864   0.06181   0.06218
 Alpha virt. eigenvalues --    0.06318   0.07087   0.07173   0.07270   0.07486
 Alpha virt. eigenvalues --    0.07663   0.07767   0.08087   0.08323   0.08507
 Alpha virt. eigenvalues --    0.08972   0.09150   0.09556   0.09706   0.09791
 Alpha virt. eigenvalues --    0.09894   0.10333   0.10547   0.10623   0.10851
 Alpha virt. eigenvalues --    0.10983   0.11153   0.11349   0.11521   0.11807
 Alpha virt. eigenvalues --    0.11919   0.12028   0.12105   0.12216   0.12428
 Alpha virt. eigenvalues --    0.12581   0.12836   0.12948   0.13031   0.13119
 Alpha virt. eigenvalues --    0.13456   0.13569   0.13717   0.13829   0.13957
 Alpha virt. eigenvalues --    0.14197   0.14274   0.14495   0.14631   0.14873
 Alpha virt. eigenvalues --    0.14962   0.15079   0.15255   0.15349   0.15611
 Alpha virt. eigenvalues --    0.15910   0.16038   0.16177   0.16359   0.16584
 Alpha virt. eigenvalues --    0.16762   0.16930   0.17046   0.17127   0.17269
 Alpha virt. eigenvalues --    0.17400   0.17653   0.17712   0.17818   0.17928
 Alpha virt. eigenvalues --    0.18176   0.18417   0.18501   0.18674   0.18973
 Alpha virt. eigenvalues --    0.19247   0.19456   0.19589   0.19610   0.19948
 Alpha virt. eigenvalues --    0.20197   0.20595   0.20723   0.20763   0.20994
 Alpha virt. eigenvalues --    0.21156   0.21221   0.21418   0.21785   0.22087
 Alpha virt. eigenvalues --    0.22162   0.22352   0.22452   0.22612   0.22781
 Alpha virt. eigenvalues --    0.22996   0.23185   0.23445   0.23605   0.23777
 Alpha virt. eigenvalues --    0.23933   0.24287   0.24357   0.24562   0.24703
 Alpha virt. eigenvalues --    0.24908   0.25232   0.25269   0.25373   0.25618
 Alpha virt. eigenvalues --    0.25772   0.25969   0.26169   0.26401   0.26656
 Alpha virt. eigenvalues --    0.26713   0.26926   0.27094   0.27447   0.27599
 Alpha virt. eigenvalues --    0.27824   0.27865   0.28034   0.28282   0.28357
 Alpha virt. eigenvalues --    0.28534   0.28600   0.28841   0.28980   0.29210
 Alpha virt. eigenvalues --    0.29299   0.29456   0.29665   0.29939   0.30141
 Alpha virt. eigenvalues --    0.30262   0.30285   0.30426   0.30792   0.30991
 Alpha virt. eigenvalues --    0.31431   0.31508   0.31760   0.31878   0.32116
 Alpha virt. eigenvalues --    0.32380   0.32571   0.32792   0.32989   0.33406
 Alpha virt. eigenvalues --    0.33503   0.33736   0.33908   0.33981   0.34157
 Alpha virt. eigenvalues --    0.34507   0.34752   0.34984   0.35232   0.35344
 Alpha virt. eigenvalues --    0.35567   0.35985   0.36126   0.36208   0.36679
 Alpha virt. eigenvalues --    0.36897   0.37154   0.37367   0.37525   0.37705
 Alpha virt. eigenvalues --    0.37863   0.38287   0.38522   0.38609   0.39084
 Alpha virt. eigenvalues --    0.39253   0.39549   0.40100   0.40408   0.40522
 Alpha virt. eigenvalues --    0.40966   0.41194   0.41460   0.41611   0.42056
 Alpha virt. eigenvalues --    0.42777   0.42902   0.43166   0.43260   0.43860
 Alpha virt. eigenvalues --    0.44081   0.44581   0.44881   0.45231   0.45833
 Alpha virt. eigenvalues --    0.46127   0.47192   0.47583   0.48303   0.48643
 Alpha virt. eigenvalues --    0.49182   0.49590   0.49854   0.51659   0.51841
 Alpha virt. eigenvalues --    0.52440   0.52966   0.54193   0.54473   0.54783
 Alpha virt. eigenvalues --    0.54903   0.55348   0.56227   0.56413   0.56726
 Alpha virt. eigenvalues --    0.57124   0.57228   0.57798   0.58268   0.58667
 Alpha virt. eigenvalues --    0.58848   0.59365   0.59545   0.60060   0.60498
 Alpha virt. eigenvalues --    0.60590   0.61074   0.61462   0.61532   0.62083
 Alpha virt. eigenvalues --    0.62265   0.62407   0.62987   0.63598   0.63796
 Alpha virt. eigenvalues --    0.64030   0.64645   0.64988   0.65127   0.65380
 Alpha virt. eigenvalues --    0.65622   0.65968   0.66425   0.66861   0.67332
 Alpha virt. eigenvalues --    0.67579   0.67682   0.68129   0.68409   0.68833
 Alpha virt. eigenvalues --    0.69414   0.69691   0.69830   0.70327   0.70755
 Alpha virt. eigenvalues --    0.71129   0.71285   0.71467   0.71842   0.72387
 Alpha virt. eigenvalues --    0.72548   0.72847   0.73261   0.73482   0.73834
 Alpha virt. eigenvalues --    0.74028   0.74370   0.74725   0.74987   0.75398
 Alpha virt. eigenvalues --    0.75480   0.75730   0.76491   0.76533   0.76837
 Alpha virt. eigenvalues --    0.77254   0.78040   0.78108   0.78228   0.78340
 Alpha virt. eigenvalues --    0.79114   0.79373   0.79672   0.80616   0.80763
 Alpha virt. eigenvalues --    0.80994   0.81422   0.82384   0.82815   0.83289
 Alpha virt. eigenvalues --    0.83690   0.84267   0.84816   0.85086   0.85165
 Alpha virt. eigenvalues --    0.85893   0.86293   0.86935   0.87283   0.87926
 Alpha virt. eigenvalues --    0.88227   0.88386   0.89092   0.89613   0.89913
 Alpha virt. eigenvalues --    0.90185   0.90334   0.90605   0.91296   0.91416
 Alpha virt. eigenvalues --    0.91617   0.92263   0.92617   0.92838   0.93170
 Alpha virt. eigenvalues --    0.93608   0.94136   0.94429   0.94619   0.94955
 Alpha virt. eigenvalues --    0.95011   0.95682   0.95963   0.96339   0.96947
 Alpha virt. eigenvalues --    0.97611   0.97762   0.98134   0.98375   0.98769
 Alpha virt. eigenvalues --    0.99187   0.99439   0.99808   1.00786   1.01123
 Alpha virt. eigenvalues --    1.01547   1.01755   1.02033   1.02346   1.02536
 Alpha virt. eigenvalues --    1.03620   1.03863   1.04300   1.04527   1.04849
 Alpha virt. eigenvalues --    1.05453   1.05637   1.05882   1.06418   1.07074
 Alpha virt. eigenvalues --    1.07435   1.07694   1.08314   1.09019   1.09430
 Alpha virt. eigenvalues --    1.10061   1.10495   1.10684   1.11901   1.12308
 Alpha virt. eigenvalues --    1.12605   1.14229   1.14898   1.15289   1.15626
 Alpha virt. eigenvalues --    1.15858   1.16284   1.16475   1.16855   1.18635
 Alpha virt. eigenvalues --    1.18933   1.20004   1.20007   1.20649   1.22869
 Alpha virt. eigenvalues --    1.23773   1.24691   1.25356   1.26474   1.27925
 Alpha virt. eigenvalues --    1.29875   1.30200   1.30885   1.31609   1.32183
 Alpha virt. eigenvalues --    1.32313   1.33344   1.34269   1.34604   1.35077
 Alpha virt. eigenvalues --    1.35979   1.36340   1.36709   1.37526   1.38691
 Alpha virt. eigenvalues --    1.39919   1.40201   1.41098   1.42208   1.42944
 Alpha virt. eigenvalues --    1.45124   1.45550   1.46237   1.46650   1.47510
 Alpha virt. eigenvalues --    1.48062   1.48311   1.48619   1.49283   1.49932
 Alpha virt. eigenvalues --    1.50052   1.50820   1.51121   1.51963   1.52450
 Alpha virt. eigenvalues --    1.53092   1.53639   1.53988   1.54168   1.54967
 Alpha virt. eigenvalues --    1.55193   1.55497   1.56220   1.56378   1.57302
 Alpha virt. eigenvalues --    1.57354   1.57672   1.58202   1.58467   1.59159
 Alpha virt. eigenvalues --    1.59224   1.59520   1.60442   1.61193   1.61474
 Alpha virt. eigenvalues --    1.62269   1.62934   1.63260   1.64406   1.65185
 Alpha virt. eigenvalues --    1.65653   1.65992   1.66541   1.67196   1.67745
 Alpha virt. eigenvalues --    1.68373   1.69087   1.69324   1.69909   1.70086
 Alpha virt. eigenvalues --    1.71058   1.72044   1.72168   1.72753   1.72911
 Alpha virt. eigenvalues --    1.73341   1.74020   1.74379   1.74854   1.75217
 Alpha virt. eigenvalues --    1.75683   1.76286   1.76453   1.77312   1.77765
 Alpha virt. eigenvalues --    1.78040   1.78321   1.78768   1.79410   1.79827
 Alpha virt. eigenvalues --    1.79855   1.80683   1.81052   1.81319   1.81845
 Alpha virt. eigenvalues --    1.82756   1.84707   1.85187   1.86092   1.87225
 Alpha virt. eigenvalues --    1.87454   1.88896   1.89432   1.90026   1.90435
 Alpha virt. eigenvalues --    1.90755   1.90985   1.91633   1.92667   1.93100
 Alpha virt. eigenvalues --    1.93211   1.93430   1.94258   1.94637   1.95994
 Alpha virt. eigenvalues --    1.96308   1.96429   1.96785   1.98469   1.99017
 Alpha virt. eigenvalues --    1.99656   2.00760   2.00816   2.01578   2.01905
 Alpha virt. eigenvalues --    2.03026   2.03688   2.04161   2.04860   2.05232
 Alpha virt. eigenvalues --    2.06585   2.06844   2.07441   2.08022   2.08550
 Alpha virt. eigenvalues --    2.10052   2.10232   2.11329   2.11626   2.12076
 Alpha virt. eigenvalues --    2.12896   2.13843   2.14569   2.15960   2.16213
 Alpha virt. eigenvalues --    2.16545   2.18774   2.19058   2.19703   2.21089
 Alpha virt. eigenvalues --    2.21981   2.22201   2.23456   2.24667   2.25888
 Alpha virt. eigenvalues --    2.26523   2.27847   2.28091   2.28645   2.29143
 Alpha virt. eigenvalues --    2.30184   2.30844   2.31456   2.31840   2.32433
 Alpha virt. eigenvalues --    2.33977   2.34479   2.35258   2.35542   2.36951
 Alpha virt. eigenvalues --    2.37142   2.38819   2.39917   2.41640   2.42371
 Alpha virt. eigenvalues --    2.44025   2.45005   2.45805   2.46403   2.46506
 Alpha virt. eigenvalues --    2.47203   2.47450   2.48032   2.49103   2.50093
 Alpha virt. eigenvalues --    2.50936   2.51364   2.52246   2.52708   2.53657
 Alpha virt. eigenvalues --    2.54911   2.55246   2.55845   2.56004   2.56748
 Alpha virt. eigenvalues --    2.57139   2.57698   2.58420   2.59510   2.59663
 Alpha virt. eigenvalues --    2.60401   2.61362   2.62903   2.63444   2.63905
 Alpha virt. eigenvalues --    2.64578   2.65259   2.66162   2.66517   2.66740
 Alpha virt. eigenvalues --    2.67695   2.68300   2.69035   2.69532   2.70035
 Alpha virt. eigenvalues --    2.70383   2.70723   2.71464   2.72128   2.73079
 Alpha virt. eigenvalues --    2.73500   2.73743   2.73982   2.75466   2.75681
 Alpha virt. eigenvalues --    2.75898   2.76653   2.76906   2.77507   2.77982
 Alpha virt. eigenvalues --    2.78436   2.78868   2.79807   2.80141   2.80521
 Alpha virt. eigenvalues --    2.81486   2.82035   2.83620   2.83897   2.85022
 Alpha virt. eigenvalues --    2.85598   2.85747   2.86310   2.86732   2.87259
 Alpha virt. eigenvalues --    2.87359   2.87978   2.88519   2.89048   2.90595
 Alpha virt. eigenvalues --    2.90832   2.91021   2.93043   2.93468   2.93944
 Alpha virt. eigenvalues --    2.94205   2.95162   2.95694   2.95846   2.96294
 Alpha virt. eigenvalues --    2.96315   2.96786   2.97409   2.97628   2.99109
 Alpha virt. eigenvalues --    2.99784   3.00539   3.00740   3.02399   3.03538
 Alpha virt. eigenvalues --    3.03996   3.04200   3.04918   3.05969   3.07713
 Alpha virt. eigenvalues --    3.09732   3.10877   3.11614   3.12343   3.13013
 Alpha virt. eigenvalues --    3.14698   3.15145   3.17775   3.18979   3.21415
 Alpha virt. eigenvalues --    3.22110   3.23068   3.23742   3.23849   3.25733
 Alpha virt. eigenvalues --    3.27254   3.32328   3.33031   3.34796   3.35564
 Alpha virt. eigenvalues --    3.37430   3.37995   3.39080   3.41053   3.41818
 Alpha virt. eigenvalues --    3.42769   3.44381   3.48457   3.49636   3.50355
 Alpha virt. eigenvalues --    3.51805   3.53135   3.53558   3.58069   3.58293
 Alpha virt. eigenvalues --    3.59732   3.60049   3.63110   3.63641   3.64264
 Alpha virt. eigenvalues --    3.66012   3.66791   3.67723   3.70276   3.75257
 Alpha virt. eigenvalues --    3.76069   3.77984   3.78536   3.78703   3.79256
 Alpha virt. eigenvalues --    3.81052   3.81478   3.82459   3.82565   3.83916
 Alpha virt. eigenvalues --    3.85569   3.88182   3.92173   3.93789   3.94082
 Alpha virt. eigenvalues --    3.94758   3.95166   3.95911   3.96289   3.98861
 Alpha virt. eigenvalues --    3.99512   4.00831   4.02221   4.04243   4.06060
 Alpha virt. eigenvalues --    4.08761   4.10892   4.11735   4.19172   4.19436
 Alpha virt. eigenvalues --    4.21573   4.22627   4.25969   4.29295   4.33879
 Alpha virt. eigenvalues --    4.35704   4.36167   4.42207   4.49076   4.54629
 Alpha virt. eigenvalues --    4.59023   4.62143   4.75227   4.80314   4.84729
 Alpha virt. eigenvalues --    4.86347   4.89643   4.96192   4.96487   5.07188
 Alpha virt. eigenvalues --    5.16747   5.21632   5.21782   5.23842   5.32664
 Alpha virt. eigenvalues --    5.41577   5.46652   5.49407   5.75983   5.92448
 Alpha virt. eigenvalues --   23.60629  23.64007  23.65544  23.80302  23.81472
 Alpha virt. eigenvalues --   23.87457  23.88059  23.89239  23.91368  23.93447
 Alpha virt. eigenvalues --   23.94434  23.95094  23.95993  23.96848  23.97410
 Alpha virt. eigenvalues --   23.98232  23.99837  24.02564  24.06292  24.06761
 Alpha virt. eigenvalues --   24.08326  24.09967  24.16941  24.17289  24.17787
 Alpha virt. eigenvalues --   24.19236  35.46813  35.53711  35.60310  35.62774
 Alpha virt. eigenvalues --   35.67015  35.68579  35.70463  35.70593  49.93993
 Alpha virt. eigenvalues --   49.99103
          Condensed to atoms (all electrons):
 Mulliken charges:
               1
     1  O   -0.066547
     2  O   -0.023535
     3  N   -0.054977
     4  N   -0.246807
     5  N    0.291369
     6  N   -0.112557
     7  N   -0.148373
     8  N    0.094670
     9  N   -0.168354
    10  N   -0.168416
    11  C    0.306367
    12  C   -0.319251
    13  C   -0.494405
    14  C   -0.541533
    15  C   -0.167801
    16  C   -0.586737
    17  C    1.424293
    18  C   -0.419924
    19  C   -0.073327
    20  C   -0.904485
    21  C    0.139264
    22  C   -0.670004
    23  C   -0.912372
    24  C    0.388718
    25  C   -0.025519
    26  C   -0.271646
    27  C   -0.186552
    28  C    0.139736
    29  C    0.101589
    30  C   -0.412549
    31  C   -0.620391
    32  C    0.050639
    33  C    0.100910
    34  C   -0.318398
    35  C   -0.172216
    36  C    0.155872
    37  H    0.216295
    38  H    0.193184
    39  H    0.159094
    40  H    0.151513
    41  H    0.149471
    42  H    0.150365
    43  H    0.171071
    44  H    0.148738
    45  H    0.352036
    46  H    0.154483
    47  H    0.211258
    48  H    0.222548
    49  H    0.291590
    50  H    0.219235
    51  H    0.191518
    52  H    0.222086
    53  H    0.241657
    54  H    0.154872
    55  H    0.183140
    56  H    0.180272
    57  H    0.252069
    58  H    0.231460
    59  H    0.232012
    60  H    0.213282
 Sum of Mulliken charges =  -0.00000
 Mulliken charges with hydrogens summed into heavy atoms:
               1
     1  O   -0.066547
     2  O   -0.023535
     3  N   -0.054977
     4  N    0.105229
     5  N    0.582959
     6  N   -0.112557
     7  N   -0.148373
     8  N    0.094670
     9  N   -0.168354
    10  N   -0.168416
    11  C    0.306367
    12  C    0.090228
    13  C   -0.034327
    14  C   -0.071360
    15  C   -0.167801
    16  C   -0.586737
    17  C    1.424293
    18  C   -0.265441
    19  C    0.137931
    20  C   -0.904485
    21  C    0.139264
    22  C   -0.447456
    23  C   -0.912372
    24  C    0.388718
    25  C    0.193715
    26  C   -0.271646
    27  C    0.004965
    28  C    0.361822
    29  C    0.343247
    30  C    0.105735
    31  C   -0.620391
    32  C    0.302708
    33  C    0.100910
    34  C   -0.086937
    35  C    0.059796
    36  C    0.369154
 Electronic spatial extent (au):  <R**2>=          23895.2270
 Charge=             -0.0000 electrons
 Dipole moment (field-independent basis, Debye):
    X=              2.8702    Y=              3.8157    Z=             -3.1532  Tot=              5.7220
 Quadrupole moment (field-independent basis, Debye-Ang):
   XX=           -189.9323   YY=           -217.6731   ZZ=           -205.5650
   XY=             41.4336   XZ=              8.5391   YZ=             -2.4381
 Traceless Quadrupole moment (field-independent basis, Debye-Ang):
   XX=             14.4578   YY=            -13.2829   ZZ=             -1.1749
   XY=             41.4336   XZ=              8.5391   YZ=             -2.4381
 Octapole moment (field-independent basis, Debye-Ang**2):
  XXX=            230.4024  YYY=            196.1374  ZZZ=            -20.6757  XYY=             -3.1518
  XXY=             -7.5504  XXZ=            -74.2393  XZZ=            -14.4123  YZZ=             -2.4982
  YYZ=             19.8485  XYZ=              4.8051
 Hexadecapole moment (field-independent basis, Debye-Ang**3):
 XXXX=         -21812.3630 YYYY=          -8377.2850 ZZZZ=          -1077.1918 XXXY=           1634.7646
 XXXZ=            563.7952 YYYX=            570.9575 YYYZ=              4.0878 ZZZX=             32.7684
 ZZZY=            -19.7549 XXYY=          -5783.7945 XXZZ=          -4024.0608 YYZZ=          -1671.0405
 XXYZ=            210.0798 YYXZ=            -48.3999 ZZXY=            125.0945
 N-N= 3.534212273213D+03 E-N=-1.077949345467D+04  KE= 1.587694580484D+03
 D1PCM: PCM CHGder 1st derivatives, ID1Alg=3 FixD1E=F DoIter=F DoCFld=F I1PDM=0.
 Calling FoFJK, ICntrl=      2127 FMM=T ISym2X=0 I1Cent= 0 IOpClX= 0 NMat=1 NMatS=1 NMatT=0.
 ***** Axes restored to original set *****
 -------------------------------------------------------------------
 Center     Atomic                   Forces (Hartrees/Bohr)
 Number     Number              X              Y              Z
 -------------------------------------------------------------------
      1        8          -0.015448902    0.011772844   -0.006454810
      2        8           0.022266911    0.013148035    0.001706662
      3        7          -0.027906614   -0.001955322   -0.007705773
      4        7          -0.016166817   -0.001006439   -0.001575576
      5        7          -0.020723157   -0.009016730   -0.011617123
      6        7           0.022043163    0.030806287   -0.001037952
      7        7          -0.008905539   -0.018776023    0.002763172
      8        7          -0.010335596    0.015912919   -0.000929771
      9        7           0.005870428   -0.016715163    0.003931864
     10        7           0.001551169   -0.003811635    0.000533289
     11        6           0.019519074    0.004698837    0.005237028
     12        6           0.002823998   -0.019347463    0.002482202
     13        6           0.004334812   -0.001464421    0.006809546
     14        6           0.004441077   -0.000777187   -0.006832318
     15        6           0.018401157    0.005471219    0.006663456
     16        6           0.030817188   -0.006773060   -0.007830457
     17        6          -0.006806212   -0.019386469   -0.004351049
     18        6          -0.003200968   -0.003488629   -0.003356158
     19        6          -0.012417469    0.028010502    0.007496528
     20        6           0.001060392    0.001627880   -0.000768132
     21        6           0.061006078    0.021769230   -0.009113845
     22        6          -0.026704090   -0.022510482    0.002879461
     23        6          -0.014359706    0.013986904    0.004903860
     24        6          -0.003969751    0.004936302    0.006476824
     25        6           0.005650074   -0.001060690   -0.002917344
     26        6          -0.025684024   -0.011399586   -0.010579199
     27        6           0.006481527   -0.002071175   -0.004257738
     28        6          -0.006852900   -0.001039734   -0.001747518
     29        6          -0.026225426   -0.010318601    0.007924325
     30        6           0.003397283    0.004672430    0.007822774
     31        6           0.017017372    0.010335991   -0.017572482
     32        6          -0.001944704   -0.025655124    0.014674928
     33        6           0.001833303    0.030547818   -0.014840955
     34        6          -0.026027999    0.010760173    0.013900854
     35        6           0.013438884   -0.025909968    0.004521320
     36        6           0.001300128    0.001720412   -0.001383170
     37        1           0.001471834    0.001060700    0.000216296
     38        1          -0.002707206    0.002870228    0.000249996
     39        1          -0.000577537   -0.000772944   -0.002209932
     40        1           0.000010910    0.000529927   -0.000256846
     41        1          -0.001169910   -0.001448239   -0.002078008
     42        1          -0.000113738    0.000345557    0.000548748
     43        1          -0.000602222   -0.000978491    0.001669299
     44        1          -0.001719546   -0.001226026    0.001678580
     45        1           0.006159152   -0.004707114    0.002125038
     46        1          -0.004236380   -0.000316769    0.005503704
     47        1           0.002223147    0.000071041   -0.000269561
     48        1           0.003795654   -0.000088336   -0.001136805
     49        1           0.000294227   -0.000284505    0.006424261
     50        1           0.002418882   -0.000512841   -0.003419488
     51        1          -0.000601442    0.001587659    0.001563296
     52        1           0.000164740    0.000672678    0.002880813
     53        1           0.000025032    0.001658455   -0.000125558
     54        1           0.000887885   -0.002092286   -0.002668010
     55        1           0.002149615   -0.002107858    0.002620557
     56        1           0.002454689    0.003318532    0.000809512
     57        1           0.000650796    0.000848908   -0.002390475
     58        1           0.000142355   -0.002246711    0.000568303
     59        1          -0.000866283   -0.003799411    0.001917290
     60        1           0.000171206   -0.000076032   -0.000077733
 -------------------------------------------------------------------
 Cartesian Forces:  Max     0.061006078 RMS     0.011126686

 GradGradGradGradGradGradGradGradGradGradGradGradGradGradGradGradGradGrad
 Berny optimization.
 FormGI is forming the generalized inverse of G from B-inverse, IUseBI=4.
 Internal  Forces:  Max     0.028433654 RMS     0.005779146
 Search for a local minimum.
 Step number   1 out of a maximum of  339
 All quantities printed in internal units (Hartrees-Bohrs-Radians)
 Mixed Optimization -- RFO/linear search
 Second derivative matrix not updated -- first step.
 ITU=  0
     Eigenvalues ---    0.00348   0.00438   0.00784   0.00857   0.01464
     Eigenvalues ---    0.01637   0.01642   0.01669   0.01695   0.01699
     Eigenvalues ---    0.01852   0.01917   0.01955   0.01966   0.01985
     Eigenvalues ---    0.01989   0.02000   0.02037   0.02067   0.02088
     Eigenvalues ---    0.02096   0.02124   0.02142   0.02144   0.02148
     Eigenvalues ---    0.02154   0.02156   0.02157   0.02157   0.02157
     Eigenvalues ---    0.02157   0.02158   0.02163   0.02172   0.02175
     Eigenvalues ---    0.02191   0.02193   0.02201   0.02308   0.02327
     Eigenvalues ---    0.02361   0.02397   0.02412   0.02413   0.02435
     Eigenvalues ---    0.02512   0.02512   0.04382   0.04947   0.05452
     Eigenvalues ---    0.05504   0.05512   0.05574   0.05686   0.05972
     Eigenvalues ---    0.07256   0.07365   0.08523   0.10746   0.11232
     Eigenvalues ---    0.13948   0.15794   0.15922   0.15984   0.15998
     Eigenvalues ---    0.15998   0.15999   0.16000   0.16000   0.16000
     Eigenvalues ---    0.16000   0.16000   0.16000   0.16000   0.16000
     Eigenvalues ---    0.16000   0.16000   0.16000   0.16000   0.16000
     Eigenvalues ---    0.16000   0.16000   0.16000   0.18225   0.22030
     Eigenvalues ---    0.22111   0.22375   0.22418   0.22431   0.23156
     Eigenvalues ---    0.23447   0.23492   0.23531   0.23571   0.24154
     Eigenvalues ---    0.24610   0.24617   0.24632   0.25000   0.25000
     Eigenvalues ---    0.25000   0.25000   0.25000   0.25000   0.25000
     Eigenvalues ---    0.25000   0.25000   0.25000   0.25000   0.29002
     Eigenvalues ---    0.29277   0.29910   0.33113   0.33911   0.34114
     Eigenvalues ---    0.34121   0.34121   0.34136   0.34157   0.34205
     Eigenvalues ---    0.34215   0.34215   0.34224   0.34256   0.34305
     Eigenvalues ---    0.34992   0.35123   0.35140   0.35152   0.35189
     Eigenvalues ---    0.35465   0.35513   0.35567   0.35614   0.35630
     Eigenvalues ---    0.36023   0.36168   0.39871   0.40027   0.40699
     Eigenvalues ---    0.40715   0.41853   0.42261   0.42571   0.42887
     Eigenvalues ---    0.44829   0.44924   0.44972   0.44998   0.45020
     Eigenvalues ---    0.45363   0.45663   0.45679   0.46471   0.46485
     Eigenvalues ---    0.46490   0.46494   0.46858   0.46999   0.48497
     Eigenvalues ---    0.49354   0.51755   0.52218   0.52493   0.52522
     Eigenvalues ---    0.52531   0.53438   0.53471   0.55348   0.55949
     Eigenvalues ---    0.55991   0.56148   0.61721   0.64186
 RFO step:  Lambda=-2.98548039D-02 EMin= 3.48006783D-03
 Linear search not attempted -- first point.
 Iteration  1 RMS(Cart)=  0.32965065 RMS(Int)=  0.00559584
 Iteration  2 RMS(Cart)=  0.04935095 RMS(Int)=  0.00016163
 Iteration  3 RMS(Cart)=  0.00043702 RMS(Int)=  0.00011054
 Iteration  4 RMS(Cart)=  0.00000006 RMS(Int)=  0.00011054
 Variable       Old X    -DE/DX   Delta X   Delta X   Delta X     New X
                                 (Linear)    (Quad)   (Total)
    R1        2.68705   0.01725   0.00000   0.03995   0.03991   2.72696
    R2        2.57875   0.00185   0.00000  -0.00124  -0.00140   2.57735
    R3        2.57430   0.02587   0.00000   0.04663   0.04663   2.62093
    R4        2.58135   0.00821   0.00000   0.01500   0.01500   2.59635
    R5        2.78690   0.00921   0.00000   0.02683   0.02695   2.81386
    R6        2.45224  -0.01535   0.00000  -0.02503  -0.02508   2.42716
    R7        2.57394   0.00139   0.00000   0.00250   0.00250   2.57644
    R8        2.64514   0.00776   0.00000   0.01596   0.01596   2.66109
    R9        1.91952  -0.00467   0.00000  -0.00974  -0.00974   1.90978
   R10        2.67810  -0.02118   0.00000  -0.04617  -0.04617   2.63193
   R11        2.65278  -0.00012   0.00000  -0.00024  -0.00024   2.65253
   R12        1.92064  -0.00467   0.00000  -0.00975  -0.00975   1.91089
   R13        2.54073   0.01682   0.00000   0.02911   0.02898   2.56971
   R14        2.54839  -0.02675   0.00000  -0.04866  -0.04866   2.49973
   R15        2.54439  -0.01375   0.00000  -0.02400  -0.02386   2.52053
   R16        2.53717   0.00667   0.00000   0.00783   0.00795   2.54512
   R17        2.56331   0.00410   0.00000   0.00617   0.00621   2.56952
   R18        2.64446  -0.00879   0.00000  -0.01939  -0.01928   2.62518
   R19        2.63805  -0.02172   0.00000  -0.04595  -0.04592   2.59212
   R20        2.48364   0.01759   0.00000   0.02761   0.02761   2.51125
   R21        2.57114  -0.00244   0.00000  -0.00399  -0.00406   2.56707
   R22        2.51743  -0.00532   0.00000  -0.00946  -0.00950   2.50793
   R23        2.87417   0.01032   0.00000   0.03873   0.03883   2.91300
   R24        2.88143   0.00387   0.00000   0.01176   0.01176   2.89318
   R25        2.89430   0.00369   0.00000   0.01145   0.01145   2.90575
   R26        2.07066  -0.00057   0.00000  -0.00152  -0.00152   2.06914
   R27        2.06818  -0.00262   0.00000  -0.00704  -0.00704   2.06115
   R28        2.07127  -0.00167   0.00000  -0.00449  -0.00449   2.06678
   R29        2.06969  -0.00048   0.00000  -0.00130  -0.00130   2.06839
   R30        2.07101  -0.00191   0.00000  -0.00514  -0.00514   2.06587
   R31        2.06985  -0.00042   0.00000  -0.00114  -0.00114   2.06872
   R32        2.07138  -0.00120   0.00000  -0.00322  -0.00322   2.06816
   R33        2.07127  -0.00209   0.00000  -0.00562  -0.00562   2.06565
   R34        2.62922  -0.00240   0.00000  -0.00555  -0.00547   2.62376
   R35        2.62752   0.02156   0.00000   0.04087   0.04092   2.66844
   R36        2.65634   0.00677   0.00000   0.01556   0.01559   2.67193
   R37        2.65418   0.02038   0.00000   0.04879   0.04861   2.70279
   R38        2.63061   0.02843   0.00000   0.05992   0.05993   2.69054
   R39        2.04851  -0.00503   0.00000  -0.01307  -0.01307   2.03544
   R40        2.64162  -0.01792   0.00000  -0.03793  -0.03795   2.60367
   R41        2.05447  -0.00206   0.00000  -0.00539  -0.00539   2.04908
   R42        2.63188   0.01643   0.00000   0.03368   0.03360   2.66548
   R43        2.05688  -0.00339   0.00000  -0.00893  -0.00893   2.04796
   R44        2.63582   0.00618   0.00000   0.01282   0.01282   2.64864
   R45        2.63579   0.00312   0.00000   0.00629   0.00626   2.64205
   R46        2.63590   0.00278   0.00000   0.00596   0.00599   2.64189
   R47        2.63577   0.00345   0.00000   0.00700   0.00703   2.64280
[...]
 00076565,0.00000108,-0.00000060,-0.00000046,0.00000006,-0.00000204,-0.
 00000113,-0.00001471,0.00000318,0.00000639,-0.00000092,0.00000169,0.00
 000083,0.00000095,0.00000429,-0.00000028,0.00147673,0.00726352,0.00231
 421,-0.00007219,0.00029677,0.00008134,-0.00017133,0.00172393,0.0008025
 5,-0.00000036,0.00000055,0.00000031,-0.00000019,0.00000017,0.00000021,
 -0.00000028,-0.00000032,0.00000013,-0.00000012,-0.00000045,-0.00000027
 ,-0.00000167,0.00000115,0.00000084,0.00000012,0.00000147,0.00000230,-0
 .00000274,0.00000010,0.00000131,-0.00000019,0.00000059,0.00000022,0.00
 000018,-0.00000111,-0.00000143,-0.00000027,-0.00000176,-0.00000100,0.0
 0000523,-0.00000785,-0.00000671,0.00000034,0.00000042,0.00000041,0.000
 01057,-0.00000283,0.00000756,0.00012706,0.00003138,-0.00004910,0.00000
 278,-0.00003978,-0.00000522,-0.00007682,-0.00053926,-0.00021351,-0.000
 01187,-0.00002466,-0.00000623,-0.00010336,0.00005298,0.00004054,0.0000
 0157,-0.00000107,0.00000030,0.00002172,0.00000701,0.00000600,0.0004662
 6,0.00137573,0.00161247,-0.00018022,0.00315783,0.00090153,0.00000043,-
 0.00083884,-0.00043517,-0.01044864,-0.06153730,0.09367622,-0.00179345,
 -0.00135095,0.00506642,0.00019761,-0.00032595,-0.00008657,0.00000002,0
 .,-0.00000005,-0.00000003,0.00000003,0.00000003,0.00000005,-0.00000010
 ,-0.00000002,-0.00000006,-0.00000008,0.,0.00000020,0.00000005,-0.00000
 007,-0.00000010,0.00000002,-0.00000005,0.00000020,0.,0.00000008,-0.000
 00003,0.00000016,0.00000001,0.00000008,-0.00000009,0.,0.00000007,0.000
 00022,0.00000032,-0.00000008,-0.00000007,0.00000004,-0.00000012,0.0000
 0006,0.00000006,0.00000021,0.00000134,-0.00000145,0.00000786,0.0000026
 4,0.00000027,-0.00000819,-0.00000172,0.00000560,-0.00000043,-0.0000017
 5,-0.00000566,0.00000003,0.00000031,-0.00000001,-0.00000347,0.00000230
 ,-0.00000386,0.00000228,0.00000407,0.00000141,-0.00000332,-0.00001182,
 -0.00001081,0.00007803,0.00010624,0.00005960,0.01068996,0.05702813,-0.
 00000023,0.00000064,0.00000047,-0.00096073,-0.00070560,0.00053190,-0.0
 0000067,-0.00000026,0.00000064,-0.00000022,0.00000230,0.00000118,0.000
 02871,-0.00000563,-0.00000619,0.00000211,-0.00000411,-0.00000126,0.000
 00002,-0.00000946,-0.00000070,-0.00250818,0.00226922,0.00181454,0.0001
 9480,0.00008174,0.00005406,0.00059074,0.00073292,-0.00026941,0.0000010
 7,0.00000042,-0.00000029,-0.00000039,-0.00000063,-0.00000098,0.0000002
 1,0.00000004,0.00000022,-0.00000038,0.00000023,0.00000109,0.00000198,0
 .00000095,-0.00000005,0.00000166,-0.00000436,-0.00000176,0.00000512,-0
 .00000015,-0.00000179,-0.00000073,-0.00000109,-0.00000065,-0.00000308,
 0.00000295,0.00000087,0.00000117,0.00000301,0.00000160,-0.00001469,0.0
 0001720,0.00000315,0.00000083,-0.00000125,0.00000097,-0.00001514,0.000
 00114,0.00000739,-0.00001117,0.00003828,0.00001269,0.00000117,0.000011
 24,-0.00001221,0.00011706,-0.00024160,0.00011323,0.00000540,-0.0000275
 3,-0.00002505,-0.00011006,-0.00002104,0.00003375,-0.00000163,0.0000037
 1,-0.00000025,0.00000275,-0.00000111,0.00000231,-0.00128680,0.00302067
 ,-0.00671209,0.00177810,0.00085340,0.00062638,0.00011487,-0.00047228,0
 .00038376,0.03550082,0.09370431,-0.31202495,0.00414109,0.00369228,-0.0
 1119745,-0.00052877,-0.00007961,-0.00003987,-0.00000007,-0.00000011,0.
 00000020,0.00000024,-0.00000008,0.00000004,-0.00000012,0.00000006,-0.0
 0000015,0.00000008,-0.00000008,0.,-0.00000021,0.00000010,-0.00000026,0
 .00000013,-0.00000032,-0.00000020,-0.00000042,0.00000012,-0.00000033,0
 .00000024,0.00000010,0.00000001,-0.00000040,0.00000009,0.00000005,-0.0
 0000050,-0.00000021,0.00000006,0.00000022,0.,0.00000009,0.00000023,-0.
 00000003,-0.00000061,-0.00000008,-0.00000097,-0.00000257,-0.00000021,-
 0.00000021,-0.00000131,-0.00000505,0.00000023,0.00000059,0.00000124,-0
 .00000211,0.00000370,-0.00000010,-0.00000106,-0.00000019,-0.00000033,-
 0.00000199,0.00000254,0.00000014,-0.00000769,0.00000775,0.00000373,0.0
 0000444,-0.00000272,-0.00019519,0.00013390,-0.00022299,-0.03686311,-0.
 10108925,0.32698286,0.00000041,-0.00000168,-0.00000103,-0.00131862,-0.
 00006568,0.00035695,0.00000229,-0.00000054,-0.00000120,0.00000002,-0.0
 0000672,-0.00000314,-0.00007152,0.00001657,0.00002361,-0.00000569,0.00
 001006,0.00000424,-0.00000395,0.00002645,0.00000688,-0.00065249,-0.000
 31917,0.00141409,0.00022631,0.00009835,-0.00022511,0.00051117,0.000073
 24,-0.00062999,-0.00000180,-0.00000013,0.00000055,0.00000052,0.0000010
 7,0.00000149,-0.00000042,-0.00000023,-0.00000027,0.00000054,-0.0000005
 6,-0.00000152,-0.00000462,0.00000086,0.00000130,-0.00000317,0.00000898
 ,0.00000464,-0.00001395,0.00000068,0.00000402,0.00000086,0.00000276,0.
 00000142,0.00000432,-0.00000654,-0.00000261,-0.00000177,-0.00000838,-0
 .00000248,0.00003517,-0.00004323,-0.00001848,0.00000047,0.00000252,-0.
 00000120,0.00004211,-0.00000143,-0.00002048,-0.00007390,-0.00004130,0.
 00000376,-0.00001200,0.00001463,0.00001593,0.00023334,0.00005584,-0.00
 021021,-0.00002466,-0.00000841,0.00001832,-0.00005868,0.00002895,0.000
 01517,0.00000571,-0.00001072,-0.00000238,-0.00000181,-0.00000435,-0.00
 000560,0.00012694,0.00133811,-0.00260187,0.00010141,0.00002637,-0.0002
 7732,0.00183095,0.00038338,-0.00075200,-0.01321585,-0.00185683,0.00818
 566,-0.32550033,-0.01498838,0.08679004,0.00001283,-0.00016933,0.000379
 59,0.00000011,0.00000012,-0.00000032,-0.00000039,0.00000007,-0.0000000
 8,0.00000016,-0.00000012,0.00000020,-0.00000007,0.00000005,0.,0.000000
 38,-0.00000002,0.00000020,-0.00000021,0.00000036,0.00000020,0.00000065
 ,-0.00000015,0.00000050,-0.00000033,-0.00000011,-0.00000006,0.00000081
 ,-0.00000014,-0.00000013,0.00000077,0.00000092,-0.00000004,-0.00000041
 ,-0.00000016,-0.00000017,-0.00000053,0.00000006,0.00000082,0.00000102,
 0.00000162,0.00000335,-0.00000577,-0.00000244,0.00000022,-0.00001210,-
 0.00000179,0.00000260,0.00000356,0.00000334,-0.00000492,0.00000007,0.0
 0000221,0.00000034,-0.00000260,0.00000596,0.00000185,0.00000364,0.0000
 0173,0.00000149,0.00000238,-0.00000028,-0.00000290,-0.00006439,-0.0000
 4686,0.00003483,0.00075095,-0.00028424,-0.00003137,0.33717442,0.000000
 42,0.00000049,0.00000005,0.00047606,0.00012275,-0.00021010,0.00000007,
 0.00000026,0.00000006,0.00000033,0.00000164,0.00000027,0.00002405,-0.0
 0000427,-0.00000655,0.00000188,-0.00000408,-0.00000160,0.00000314,-0.0
 0001034,-0.00000279,-0.01166147,0.00149516,0.00505113,-0.00038133,0.00
 038565,0.00094864,-0.00028809,-0.00153424,-0.00171604,-0.00000016,0.,-
 0.00000005,-0.00000003,0.00000002,0.00000005,-0.00000004,-0.00000009,0
 .00000006,-0.00000004,0.00000001,-0.00000003,-0.00000002,-0.00000099,-
 0.00000030,0.00000126,-0.00000175,-0.00000028,0.00000465,0.00000017,-0
 .00000221,-0.00000021,-0.00000117,-0.00000056,0.00000019,0.00000190,0.
 00000059,0.00000061,0.00000322,0.00000186,-0.00001251,0.00001607,0.000
 00675,-0.00000136,-0.00000072,-0.00000043,-0.00001532,-0.00002394,-0.0
 0000726,0.00008136,0.00005545,0.00001514,0.00002599,-0.00001756,-0.000
 01235,-0.00002505,-0.00041478,-0.00003706,-0.00001228,-0.00000592,0.00
 000658,-0.00003584,0.00001309,-0.00001444,-0.00000207,0.00000483,0.000
 00148,-0.00000409,-0.00000077,0.00000473,0.00109662,0.00778981,0.00367
 767,0.00003097,-0.00111744,-0.00027898,0.00149886,0.00354178,0.0022288
 4,0.00656093,0.00556562,-0.00248395,-0.01235965,-0.03839073,0.01121123
 ,-0.00032113,-0.00071835,-0.00027099,-0.00000002,0.00000004,0.,-0.0000
 0001,0.00000003,0.,0.,-0.00000005,-0.00000003,-0.00000005,-0.00000004,
 -0.00000002,0.00000005,0.00000022,0.00000011,-0.00000006,-0.00000004,0
 .,0.00000010,-0.00000004,0.00000002,0.,0.00000008,0.,-0.00000013,0.,0.
 00000006,0.,-0.00000031,0.00000019,0.00000007,0.00000014,0.,0.00000022
 ,-0.00000009,0.,0.00000067,-0.00000079,-0.00000019,0.00000402,0.000006
 53,-0.00000787,0.00000115,0.00000093,0.00000625,-0.00000491,0.00000742
 ,-0.00000399,0.00000012,-0.00000073,-0.00000019,0.00000087,-0.00000455
 ,-0.00000004,0.00000375,-0.00000535,0.00000198,0.00000570,0.00000106,0
 .00000624,-0.00006044,-0.00068087,-0.00028179,-0.00042494,-0.00455764,
 -0.00176824,0.01576131,0.02836429,-0.00000042,-0.00000183,-0.00000047,
 -0.00128769,-0.00011221,0.00053760,0.00000144,-0.00000197,-0.00000060,
 -0.00000068,-0.00000684,-0.00000184,-0.00007432,0.00001988,0.00002322,
 -0.00000399,0.00001040,0.00000403,-0.00000521,0.00002683,0.00001056,0.
 03491999,0.00334771,-0.01242244,0.00118224,0.00088488,-0.00209721,0.00
 043530,-0.00178475,0.00312113,0.00000019,0.00000091,0.00000023,-0.0000
 0048,0.00000005,-0.00000033,0.00000005,-0.00000015,-0.00000011,-0.0000
 0012,-0.00000025,0.00000055,-0.00000196,0.00000544,0.00000236,-0.00000
 255,0.00000500,0.00000242,-0.00001426,0.00000129,0.00000450,0.00000005
 ,0.00000315,0.00000046,-0.00000137,-0.00000524,-0.00000149,0.00000005,
 -0.00000975,-0.00000174,0.00003479,-0.00004436,-0.00002682,0.00000473,
 0.00000203,-0.00000029,0.00004625,-0.00001096,-0.00001427,-0.00004867,
 -0.00002405,0.00000792,-0.00000150,0.00000813,0.00001537,0.00007594,-0
 .00004137,-0.00025414,-0.00003205,-0.00000682,0.00002172,-0.00006293,0
 .00003354,0.00001396,0.00000612,-0.00001059,-0.00000512,-0.00000264,-0
 .00000548,-0.00000055,-0.00191657,0.00361222,-0.00128642,-0.00030974,-
 0.00026836,-0.00036252,-0.00401498,0.00237971,-0.00206843,-0.01669219,
 -0.00121006,0.01115701,0.07901585,0.01161651,-0.08104325,0.00083042,-0
 .00029189,-0.00008319,0.00000006,-0.00000017,0.00000008,0.00000009,-0.
 00000020,-0.00000006,-0.00000008,0.00000005,-0.00000012,0.00000014,-0.
 00000019,0.00000002,-0.00000010,0.00000012,0.00000003,0.00000010,-0.00
 000028,-0.00000030,-0.00000027,0.00000010,-0.00000016,0.00000015,0.000
 00016,0.00000005,0.00000026,-0.00000003,-0.00000006,0.00000004,0.00000
 104,0.00000036,-0.00000027,-0.00000039,0.00000002,-0.00000034,0.000000
 16,-0.00000008,0.00000036,0.00000195,-0.00000078,-0.00000429,-0.000000
 68,0.00000043,-0.00001168,-0.00000434,0.00000646,0.00000265,0.00000506
 ,-0.00000818,-0.00000014,0.00000103,0.00000053,-0.00000426,0.00000569,
 0.00000045,0.00000591,0.00000228,0.00000084,0.00000393,-0.00000390,-0.
 00000267,0.00008248,-0.00028477,0.00004512,0.00038991,-0.00178521,0.00
 002110,-0.09249076,-0.01609757,0.08466098,-0.00000003,-0.00000086,-0.0
 0000022,-0.00017740,0.00010978,-0.00033475,0.00000071,-0.00000076,-0.0
 0000015,-0.00000008,-0.00000309,-0.00000055,-0.00003220,0.00000844,0.0
 0001186,-0.00000219,0.00000468,0.00000226,-0.00000224,0.00001236,0.000
 00462,-0.00060233,-0.00180984,0.00645754,-0.01064736,0.00922876,-0.025
 86832,0.01092895,-0.00582527,0.01515256,0.00000002,0.00000041,0.000000
 02,-0.00000029,0.00000017,-0.00000005,0.00000003,-0.00000014,0.,0.0000
 0002,-0.00000014,0.00000005,-0.00000118,0.00000184,0.00000067,-0.00000
 133,0.00000272,0.00000139,-0.00000642,0.00000052,0.00000196,0.00000005
 ,0.00000146,0.00000012,-0.00000027,-0.00000256,-0.00000089,-0.00000026
 ,-0.00000421,-0.00000096,0.00001594,-0.00002054,-0.00001157,0.00000176
 ,0.00000109,-0.00000013,0.00001966,-0.00000018,-0.00000364,-0.00000919
 ,-0.00001363,0.00000183,-0.00000542,0.00000276,0.00000110,0.00015241,0
 .00000696,-0.00003225,-0.00000882,0.00000102,0.00000155,-0.00000848,0.
 00000985,0.00000677,0.00000271,-0.00000484,-0.00000264,-0.00000023,-0.
 00000210,0.00000337,-0.00065063,-0.00008114,0.00032282,0.00073621,0.00
 056513,-0.00164682,-0.00611522,0.00054379,0.00014066,0.00003604,-0.000
 16255,0.00044819,0.00150909,0.00007795,-0.00015766,-0.10965781,0.03958
 000,-0.10626791,0.,-0.00000006,0.,0.00000006,-0.00000006,0.00000005,-0
 .00000008,-0.00000002,0.,0.,-0.00000002,0.00000004,-0.00000002,0.,-0.0
 0000011,0.00000002,-0.00000004,-0.00000009,-0.00000005,0.00000004,-0.0
 0000003,0.00000002,0.00000002,0.00000003,0.00000013,-0.00000001,-0.000
 00008,0.00000005,0.00000059,-0.00000026,-0.00000007,-0.00000016,0.0000
 0002,-0.00000019,0.00000009,-0.00000002,0.00000024,0.00000086,0.000000
 19,-0.00000144,-0.00000065,0.00000019,-0.00000450,-0.00000137,0.000000
 04,0.00000246,0.00000213,0.00000085,-0.00000002,0.00000075,0.00000025,
 -0.00000319,0.00000338,-0.00000035,0.00000105,0.00000009,-0.00000038,0
 .00000051,-0.00000397,-0.00000318,0.00003855,-0.00001154,0.00005720,0.
 00012094,-0.00004409,0.00004407,-0.00002226,0.00002584,-0.00005299,0.1
 1439356,0.00000023,0.00000022,0.00000002,0.00007105,-0.00020781,-0.000
 01357,0.00000044,-0.00000002,-0.00000010,0.00000007,0.00000016,-0.0000
 0031,0.00000874,-0.00000264,-0.00000483,0.00000090,-0.00000176,-0.0000
 0056,0.00000012,-0.00000388,-0.00000173,-0.00065384,0.00617670,0.00282
 103,0.00044791,-0.00125787,-0.00033147,0.00310629,-0.00458888,0.003849
 90,-0.00000049,-0.00000013,0.,0.00000023,0.00000003,0.00000011,-0.0000
 0006,0.00000011,-0.00000003,0.00000007,0.00000008,0.00000005,-0.000000
 57,0.00000002,0.00000037,0.00000051,-0.00000026,-0.00000089,0.00000161
 ,0.00000006,-0.00000110,0.00000008,-0.00000046,0.00000009,0.00000046,0
 .00000075,0.00000065,-0.00000013,0.00000184,-0.00000072,-0.00000404,0.
 00000599,0.00000651,-0.00000045,-0.00000053,0.00000018,-0.00000446,-0.
 00000241,0.00000334,0.00000284,0.00000611,0.00000069,0.00000364,0.0000
 0038,-0.00000340,-0.00004256,0.00001252,0.00001293,0.00000097,0.000000
 94,0.00000279,0.00000553,-0.00000227,-0.00000350,-0.00000062,0.0000016
 5,0.00000066,-0.00000003,-0.00000118,0.00000179,-0.00001171,-0.0000416
 2,-0.00013592,0.00009323,0.00067900,0.00031817,0.00012839,0.00549594,0
 .00136398,-0.00009484,-0.00021988,0.00004472,0.00042332,0.00178872,0.0
 0059472,0.03869126,-0.06660462,0.08295757,0.00000003,-0.00000002,0.000
 00004,-0.00000013,0.,-0.00000015,0.00000003,0.00000005,0.00000006,0.00
 000005,-0.00000011,-0.00000009,0.00000010,0.00000007,0.,-0.00000005,-0
 .00000009,-0.00000002,0.00000014,-0.00000005,0.00000011,-0.00000003,0.
 00000001,-0.00000013,-0.00000003,0.00000001,-0.00000004,0.00000023,-0.
 00000038,0.00000073,-0.00000011,0.00000007,-0.00000012,0.00000016,-0.0
 0000014,0.00000006,-0.00000029,-0.00000026,-0.00000073,0.00000085,0.00
 000025,0.00000005,0.00000080,0.00000036,-0.00000110,-0.00000101,-0.000
 00089,-0.00000295,-0.00000004,-0.00000064,-0.00000025,0.00000089,-0.00
 000145,0.00000010,-0.00000080,0.00000096,-0.00000035,0.00000063,0.0000
 0012,0.00000200,0.00001465,0.00018577,0.00007060,0.00000611,-0.0004105
 8,-0.00012766,0.00000336,0.00011895,0.00003928,-0.04219962,0.05887300,
 0.00000006,-0.00000106,-0.00000028,-0.00021247,-0.00002604,-0.00011017
 ,0.00000021,-0.00000074,-0.00000004,0.00000028,-0.00000254,0.00000045,
 -0.00002495,0.00000625,0.00000734,-0.00000246,0.00000375,0.00000208,-0
 .00000155,0.00000921,0.00000366,0.00306372,0.00298331,-0.00216637,0.00
 003898,-0.00161411,0.00340788,-0.01121110,0.00515059,-0.01669434,0.000
 00070,0.00000084,0.00000006,-0.00000084,0.00000014,-0.00000015,0.00000
 007,-0.00000043,0.00000028,-0.00000013,-0.00000023,0.00000017,-0.00000
 062,0.00000157,-0.00000005,-0.00000090,0.00000198,0.00000245,-0.000004
 76,0.00000053,0.00000183,-0.00000063,0.00000122,-0.00000069,-0.0000011
 5,-0.00000199,-0.00000174,0.00000066,-0.00000387,0.00000037,0.00001201
 ,-0.00001622,-0.00001111,0.00000137,0.00000126,-0.00000013,0.00001663,
 -0.00000175,0.00000172,-0.00000842,-0.00001176,0.00000760,-0.00000498,
 0.00000359,-0.00000138,0.00009473,0.00001365,-0.00003135,-0.00000721,0
 .00000002,0.00000019,-0.00000985,0.00000750,0.00000661,0.00000166,-0.0
 0000371,-0.00000281,0.00000025,-0.00000075,0.00000318,0.00012303,-0.00
 012758,0.00027028,-0.00028242,0.00025710,0.00008016,0.00140332,0.00128
 876,0.00194279,0.00024952,0.00005480,-0.00040858,-0.00117636,0.0006447
 6,0.00027983,-0.10366582,0.08285046,-0.26606010,-0.00000007,0.00000005
 ,-0.00000008,0.00000028,-0.00000004,0.00000030,-0.00000008,0.00000003,
 -0.00000020,-0.00000013,0.00000011,0.00000015,-0.00000012,0.00000002,-
 0.00000013,0.00000005,0.,-0.00000012,-0.00000027,0.00000012,-0.0000002
 7,0.00000013,0.,0.00000006,0.00000011,0.,0.00000005,-0.00000005,0.0000
 0065,-0.00000024,0.00000034,-0.00000015,0.00000028,-0.00000020,0.00000
 019,-0.00000020,0.00000008,0.00000164,-0.00000136,-0.00000132,-0.00000
 078,0.00000032,-0.00000348,-0.00000091,0.00000062,0.00000179,0.0000024
 0,0.00000021,0.00000023,0.00000118,0.00000057,-0.00000279,0.00000270,-
 0.00000032,0.00000055,0.00000053,-0.00000002,0.00000112,-0.00000494,-0
 .00000264,-0.00002061,0.00007434,-0.00000576,-0.00010319,-0.00011995,-
 0.00008294,0.00001333,0.00003591,0.00002415,0.11172371,-0.09146163,0.2
 7953795\\-0.00000095,-0.00000127,0.00000479,-0.00000062,0.00000231,-0.
 00000157,-0.00000044,-0.00000137,-0.00000359,-0.00000056,-0.00000058,0
 .00000641,0.00000220,0.00000025,0.00000027,0.00000072,-0.00000034,-0.0
 0000002,0.00000038,-0.00000366,-0.00000197,0.00000004,0.00000165,0.000
 00044,0.00000060,0.00000017,0.00000535,0.00000244,0.00000014,0.0000000
 5,0.00000068,0.00000084,-0.00000044,0.00000062,-0.00000283,0.00000003,
 -0.00000034,0.00000072,0.00000010,0.00000112,-0.00000001,0.00000004,0.
 00000259,-0.00000115,-0.00000508,0.00000157,-0.00000254,-0.00000188,-0
 .00000345,0.00000096,0.00000346,-0.00000030,-0.00000052,-0.00000095,-0
 .00000004,0.00000164,0.00000034,0.00000376,-0.00000207,-0.00000163,-0.
 00000059,0.00000382,-0.00000245,-0.00000211,-0.00000174,-0.00000114,-0
 .00000205,-0.00000113,0.00000062,0.00000271,0.00000088,0.00000027,0.00
 000041,0.00000114,0.00000079,-0.00000325,-0.00000328,0.00000007,0.0000
 0082,0.00000041,0.00000015,0.00000235,0.00000165,0.00000050,-0.0000047
 1,0.00000186,-0.00000042,-0.00000075,-0.00000020,0.00000037,0.00000463
 ,0.00000073,0.00000355,-0.00000084,-0.00000076,0.00000180,-0.00000150,
 0.00000012,-0.00000254,-0.00000333,0.00000114,-0.00000104,0.00000151,0
 .,0.00000294,-0.00000427,0.00000174,-0.00000155,-0.00000006,-0.0000005
 2,-0.00000128,0.00000038,0.00000126,-0.00000119,0.00000074,-0.00000035
 ,-0.00000016,0.00000061,-0.00000036,-0.00000039,0.00000080,-0.00000012
 ,0.,0.00000081,-0.00000023,-0.00000028,0.00000081,-0.00000036,-0.00000
 034,0.00000088,-0.00000033,-0.00000074,-0.00000082,0.00000091,-0.00000
 635,-0.00000082,0.00000056,-0.00000012,-0.00000031,-0.00000140,-0.0000
 0053,-0.00000040,-0.00000047,-0.00000017,-0.00000130,0.00000103,0.0000
 0045,-0.00000017,-0.00000062,-0.00000039,0.00000110,0.00000006,0.00000
 018,0.00000017,0.00000014,0.00000068,-0.00000031,-0.00000089,0.0000007
 9,-0.00000082,-0.00000016,0.00000035,0.00000019,-0.00000004,0.00000043
 ,-0.00000022,0.00000023,0.00000071,-0.00000068,0.00000082,-0.00000004,
 0.00000079,0.00000061,0.00000096,-0.00000002,0.00000095,0.00000063,-0.
 00000041,0.00000055,0.00000073\\\@
 The archive entry for this job was punched.


 A ROPE OVER THE TOP OF A FENCE HAS THE SAME LENGTH ON EACH SIDE.
 WEIGHS 1/3 POUND PER FOOT.  ON ONE END HANGS A MONKEY HOLDING A
 BANANA, AND ON THE OTHER END A WEIGHT EQUAL TO THE WEIGHT
 OF THE MONKEY.  THE BANANA WEIGHS TWO OUNCES PER INCH.
 THE ROPE IS AS LONG AS THE AGE OF THE MONKEY, 
 AND THE WEIGHT OF THE MONKEY (IN OUNCES) IS AS MUCH
 AS THE AGE OF THE MONKEY'S MOTHER.  THE COMBINED AGES OF MONKEY
 AND MOTHER ARE THIRTY YEARS.  HALF THE WEIGHT OF THE MONKEY,
  PLUS THE WEIGHT OF THE BANANA, IS ONE FOURTH AS MUCH AS THE WEIGHT
 OF THE WEIGHT AND THE ROPE.
 THE MONKEY'S MOTHER IS HALF AS OLD AS THE MONKEY WILL BE
 WHEN IT IS 3 TIMES AS OLD AS ITS MOTHER WAS WHEN
 SHE WAS HALF AS OLD AS THE MONKEY WILL BE WHEN IT IS
 AS OLD AS ITS MOTHER WILL BE WHEN SHE IS 4 TIMES AS
 OLD AS THE MONKEY WAS WHEN IT WAS TWICE AS OLD AS 
 ITS MOTHER WAS WHEN SHE WAS ONE THIRD AS OLD AS THE
 MONKEY WAS WHEN IT WAS AS OLD AS ITS MOTHER WAS WHEN 
 SHE WAS 3 TIMES AS OLD AS THE MONKEY WAS WHEN IT WAS AS OLD AS ITS
 MOTHER WAS WHEN SHE WAS 3 TIMES AS OLD AS THE MONKEY 
 WAS WHEN IT WAS ONE FOURTH WAS OLD AS IT IS NOW.

 HOW LONG IS THE BANANA?
 Job cpu time:       3 days 18 hours 50 minutes 39.9 seconds.
 Elapsed time:       0 days  0 hours 50 minutes 39.2 seconds.
 File lengths (MBytes):  RWF=   4513 Int=      0 D2E=      0 Chk=     93 Scr=      1
 Normal termination of Gaussian 16 at Mon Mar  2 07:36:32 2026.
