SLURM_NODELIST orfoz332
NUMBER OF TASKS 1
NUMBER OF CORES=112
 Entering Gaussian System, Link 0=/arf/sw/apps/gaussian/avx/g16/g16
 Initial command:
 /arf/sw/apps/gaussian/avx/g16/l1.exe "/tmp/5347250/Gau-3149405.inp" -scrdir="/tmp/5347250/"
 Entering Link 1 = /arf/sw/apps/gaussian/avx/g16/l1.exe PID=   3149406.
  
 Copyright (c) 1988-2019, Gaussian, Inc.  All Rights Reserved.
  
 This is part of the Gaussian(R) 16 program.  It is based on
 the Gaussian(R) 09 system (copyright 2009, Gaussian, Inc.),
 the Gaussian(R) 03 system (copyright 2003, Gaussian, Inc.),
 the Gaussian(R) 98 system (copyright 1998, Gaussian, Inc.),
 the Gaussian(R) 94 system (copyright 1995, Gaussian, Inc.),
 the Gaussian 92(TM) system (copyright 1992, Gaussian, Inc.),
 the Gaussian 90(TM) system (copyright 1990, Gaussian, Inc.),
 the Gaussian 88(TM) system (copyright 1988, Gaussian, Inc.),
 the Gaussian 86(TM) system (copyright 1986, Carnegie Mellon
 University), and the Gaussian 82(TM) system (copyright 1983,
 Carnegie Mellon University). Gaussian is a federally registered
 trademark of Gaussian, Inc.
  
 This software contains proprietary and confidential information,
 including trade secrets, belonging to Gaussian, Inc.
  
 This software is provided under written license and may be
 used, copied, transmitted, or stored only in accord with that
 written license.
  
 The following legend is applicable only to US Government
 contracts under FAR:
  
                    RESTRICTED RIGHTS LEGEND
  
 Use, reproduction and disclosure by the US Government is
 subject to restrictions as set forth in subparagraphs (a)
 and (c) of the Commercial Computer Software - Restricted
 Rights clause in FAR 52.227-19.
  
 Gaussian, Inc.
 340 Quinnipiac St., Bldg. 40, Wallingford CT 06492
  
  
 ---------------------------------------------------------------
 Warning -- This program may not be used in any manner that
 competes with the business of Gaussian, Inc. or will provide
 assistance to any competitor of Gaussian, Inc.  The licensee
 of this program is prohibited from giving any competitor of
 Gaussian, Inc. access to this program.  By using this program,
 the user acknowledges that Gaussian, Inc. is engaged in the
 business of creating and licensing software in the field of
 computational chemistry and represents and warrants to the
 licensee that it is not a competitor of Gaussian, Inc. and that
 it will not use this program in any manner prohibited above.
 ---------------------------------------------------------------
  

 Cite this work as:
 Gaussian 16, Revision C.01,
 M. J. Frisch, G. W. Trucks, H. B. Schlegel, G. E. Scuseria, 
 M. A. Robb, J. R. Cheeseman, G. Scalmani, V. Barone, 
 G. A. Petersson, H. Nakatsuji, X. Li, M. Caricato, A. V. Marenich, 
 J. Bloino, B. G. Janesko, R. Gomperts, B. Mennucci, H. P. Hratchian, 
 J. V. Ortiz, A. F. Izmaylov, J. L. Sonnenberg, D. Williams-Young, 
 F. Ding, F. Lipparini, F. Egidi, J. Goings, B. Peng, A. Petrone, 
 T. Henderson, D. Ranasinghe, V. G. Zakrzewski, J. Gao, N. Rega, 
 G. Zheng, W. Liang, M. Hada, M. Ehara, K. Toyota, R. Fukuda, 
 J. Hasegawa, M. Ishida, T. Nakajima, Y. Honda, O. Kitao, H. Nakai, 
 T. Vreven, K. Throssell, J. A. Montgomery, Jr., J. E. Peralta, 
 F. Ogliaro, M. J. Bearpark, J. J. Heyd, E. N. Brothers, K. N. Kudin, 
 V. N. Staroverov, T. A. Keith, R. Kobayashi, J. Normand, 
 K. Raghavachari, A. P. Rendell, J. C. Burant, S. S. Iyengar, 
 J. Tomasi, M. Cossi, J. M. Millam, M. Klene, C. Adamo, R. Cammi, 
 J. W. Ochterski, R. L. Martin, K. Morokuma, O. Farkas, 
 J. B. Foresman, and D. J. Fox, Gaussian, Inc., Wallingford CT, 2019.
 
 ******************************************
 Gaussian 16:  ES64L-G16RevC.01  3-Jul-2019
                 2-Mar-2026 
 ******************************************
 %nprocshared=112
 Will use up to  112 processors via shared memory.
 %mem=10GB
 %chk=Sulindac.chk
 ----------------------------------------------------------------------
 # opt freq b3lyp/6-311++g(d,p) scrf=(pcm,solvent=water) geom=connectiv
 ity
 ----------------------------------------------------------------------
 1/18=20,19=15,26=3,38=1,57=2/1,3;
 2/9=110,12=2,17=6,18=5,40=1/2;
 3/5=4,6=6,7=1111,11=2,25=1,30=1,70=2201,71=1,72=1,74=-5/1,2,3;
 4//1;
 5/5=2,38=5,53=1/2;
 6/7=2,8=2,9=2,10=2,28=1/1;
 7//1,2,3,16;
 1/18=20,19=15,26=3/3(2);
 2/9=110/2;
 99//99;
 2/9=110/2;
 3/5=4,6=6,7=1111,11=2,25=1,30=1,70=2205,71=1,72=1,74=-5/1,2,3;
 4/5=5,16=3,69=1/1;
 5/5=2,38=5,53=1/2;
 7//1,2,3,16;
 1/18=20,19=15,26=3/3(-5);
 2/9=110/2;
 6/7=2,8=2,9=2,10=2,19=2,28=1/1;
 99/9=1/99;
 -------
 1548887
 -------
 Symbolic Z-matrix:
 Charge =  0 Multiplicity = 1
 S                    -6.0158   -0.1468   -0.5535 
 F                     1.8176   -4.2629    0.1823 
 O                     6.424     0.4621   -0.477 
 O                     4.5391    0.5893   -1.7442 
 O                    -6.7404    0.0925    0.7419 
 C                     2.9129    0.5542    0.5243 
 C                     2.09     -0.6598    0.3742 
 C                     2.0879    1.6224    0.4752 
 C                     0.7112    1.1605    0.2937 
 C                     0.7387   -0.3019    0.2319 
 C                     4.388     0.4854    0.6926 
 C                    -0.3911    1.9134    0.1979 
 C                     2.4697   -1.9941    0.3595 
 C                    -0.2509   -1.2584    0.0734 
 C                     2.4392    3.0672    0.5799 
 C                    -1.7627    1.4106    0.0148 
 C                     1.4786   -2.9665    0.2002 
 C                     0.1303   -2.6016    0.0583 
 C                     5.0773    0.5217   -0.6494 
 C                    -2.2631    1.2534   -1.268 
 C                    -2.5286    1.1039    1.1287 
 C                    -4.3452    0.4641   -0.3301 
 C                    -3.5627    0.7772   -1.4417 
 C                    -3.8282    0.6276    0.9551 
 C                    -5.6159   -1.9135   -0.6202 
 H                     4.6883   -0.4187    1.2316 
 H                     4.7396    1.3438    1.2757 
 H                    -0.3247    2.9976    0.2527 
 H                     3.5061   -2.2961    0.4639 
 H                    -1.3011   -1.0475   -0.0436 
 H                     3.5172    3.2211    0.6854 
 H                     1.9545    3.5203    1.4509 
 H                     2.1209    3.6078   -0.3177 
 H                    -0.6229   -3.3751   -0.0652 
 H                    -1.6633    1.4935   -2.1419 
 H                    -2.1366    1.226     2.135 
 H                    -3.9514    0.6548   -2.4494 
 H                    -4.4154    0.386     1.837 
 H                     6.903     0.4813   -1.3329 
 H                    -4.9916   -2.1148   -1.494 
 H                    -6.5488   -2.4757   -0.7069 
 H                    -5.0954   -2.2156    0.2918 
 

 GradGradGradGradGradGradGradGradGradGradGradGradGradGradGradGradGradGrad
 Berny optimization.
 Initialization pass.
                           ----------------------------
                           !    Initial Parameters    !
                           ! (Angstroms and Degrees)  !
 --------------------------                            --------------------------
 ! Name  Definition              Value          Derivative Info.                !
 --------------------------------------------------------------------------------
 ! R1    R(1,5)                  1.5035         estimate D2E/DX2                !
 ! R2    R(1,22)                 1.7928         estimate D2E/DX2                !
 ! R3    R(1,25)                 1.8126         estimate D2E/DX2                !
 ! R4    R(2,17)                 1.3401         estimate D2E/DX2                !
 ! R5    R(3,19)                 1.359          estimate D2E/DX2                !
 ! R6    R(3,39)                 0.981          estimate D2E/DX2                !
 ! R7    R(4,19)                 1.2218         estimate D2E/DX2                !
 ! R8    R(6,7)                  1.4743         estimate D2E/DX2                !
 ! R9    R(6,8)                  1.3506         estimate D2E/DX2                !
 ! R10   R(6,11)                 1.4863         estimate D2E/DX2                !
 ! R11   R(7,10)                 1.4051         estimate D2E/DX2                !
 ! R12   R(7,13)                 1.3874         estimate D2E/DX2                !
 ! R13   R(8,9)                  1.4634         estimate D2E/DX2                !
 ! R14   R(8,15)                 1.4906         estimate D2E/DX2                !
 ! R15   R(9,10)                 1.464          estimate D2E/DX2                !
 ! R16   R(9,12)                 1.3383         estimate D2E/DX2                !
 ! R17   R(10,14)                1.3854         estimate D2E/DX2                !
 ! R18   R(11,19)                1.5091         estimate D2E/DX2                !
 ! R19   R(11,26)                1.0946         estimate D2E/DX2                !
 ! R20   R(11,27)                1.0957         estimate D2E/DX2                !
 ! R21   R(12,16)                1.4723         estimate D2E/DX2                !
 ! R22   R(12,28)                1.0876         estimate D2E/DX2                !
 ! R23   R(13,17)                1.3976         estimate D2E/DX2                !
 ! R24   R(13,29)                1.0845         estimate D2E/DX2                !
 ! R25   R(14,18)                1.3963         estimate D2E/DX2                !
 ! R26   R(14,30)                1.0775         estimate D2E/DX2                !
 ! R27   R(15,31)                1.094          estimate D2E/DX2                !
 ! R28   R(15,32)                1.0949         estimate D2E/DX2                !
 ! R29   R(15,33)                1.0951         estimate D2E/DX2                !
 ! R30   R(16,20)                1.3859         estimate D2E/DX2                !
 ! R31   R(16,21)                1.3862         estimate D2E/DX2                !
 ! R32   R(17,18)                1.404          estimate D2E/DX2                !
 ! R33   R(18,34)                1.0867         estimate D2E/DX2                !
 ! R34   R(20,23)                1.395          estimate D2E/DX2                !
 ! R35   R(20,35)                1.0868         estimate D2E/DX2                !
 ! R36   R(21,24)                1.395          estimate D2E/DX2                !
 ! R37   R(21,36)                1.0868         estimate D2E/DX2                !
 ! R38   R(22,23)                1.395          estimate D2E/DX2                !
 ! R39   R(22,24)                1.3949         estimate D2E/DX2                !
 ! R40   R(23,37)                1.087          estimate D2E/DX2                !
 ! R41   R(24,38)                1.0867         estimate D2E/DX2                !
 ! R42   R(25,40)                1.0926         estimate D2E/DX2                !
 ! R43   R(25,41)                1.0927         estimate D2E/DX2                !
 ! R44   R(25,42)                1.0927         estimate D2E/DX2                !
 ! A1    A(5,1,22)             106.7089         estimate D2E/DX2                !
 ! A2    A(5,1,25)             107.0478         estimate D2E/DX2                !
 ! A3    A(22,1,25)             97.5346         estimate D2E/DX2                !
 ! A4    A(19,3,39)            111.8586         estimate D2E/DX2                !
 ! A5    A(7,6,8)              107.8559         estimate D2E/DX2                !
 ! A6    A(7,6,11)             121.8293         estimate D2E/DX2                !
 ! A7    A(8,6,11)             130.3147         estimate D2E/DX2                !
 ! A8    A(6,7,10)             109.7162         estimate D2E/DX2                !
 ! A9    A(6,7,13)             129.8128         estimate D2E/DX2                !
 ! A10   A(10,7,13)            120.4711         estimate D2E/DX2                !
 ! A11   A(6,8,9)              109.2396         estimate D2E/DX2                !
 ! A12   A(6,8,15)             128.324          estimate D2E/DX2                !
 ! A13   A(9,8,15)             122.4364         estimate D2E/DX2                !
 ! A14   A(8,9,10)             107.6293         estimate D2E/DX2                !
 ! A15   A(8,9,12)             127.3116         estimate D2E/DX2                !
 ! A16   A(10,9,12)            125.059          estimate D2E/DX2                !
 ! A17   A(7,10,9)             105.559          estimate D2E/DX2                !
 ! A18   A(7,10,14)            121.5121         estimate D2E/DX2                !
 ! A19   A(9,10,14)            132.9289         estimate D2E/DX2                !
 ! A20   A(6,11,19)            110.5801         estimate D2E/DX2                !
 ! A21   A(6,11,26)            111.4869         estimate D2E/DX2                !
 ! A22   A(6,11,27)            110.0285         estimate D2E/DX2                !
 ! A23   A(19,11,26)           109.4178         estimate D2E/DX2                !
 ! A24   A(19,11,27)           107.929          estimate D2E/DX2                !
 ! A25   A(26,11,27)           107.2782         estimate D2E/DX2                !
 ! A26   A(9,12,16)            125.7392         estimate D2E/DX2                !
 ! A27   A(9,12,28)            120.4585         estimate D2E/DX2                !
 ! A28   A(16,12,28)           113.8022         estimate D2E/DX2                !
 ! A29   A(7,13,17)            118.4434         estimate D2E/DX2                !
 ! A30   A(7,13,29)            121.8926         estimate D2E/DX2                !
 ! A31   A(17,13,29)           119.6635         estimate D2E/DX2                !
 ! A32   A(10,14,18)           118.0588         estimate D2E/DX2                !
 ! A33   A(10,14,30)           124.9931         estimate D2E/DX2                !
 ! A34   A(18,14,30)           116.9478         estimate D2E/DX2                !
 ! A35   A(8,15,31)            112.0462         estimate D2E/DX2                !
 ! A36   A(8,15,32)            110.6497         estimate D2E/DX2                !
 ! A37   A(8,15,33)            110.6352         estimate D2E/DX2                !
 ! A38   A(31,15,32)           107.5337         estimate D2E/DX2                !
 ! A39   A(31,15,33)           107.2173         estimate D2E/DX2                !
 ! A40   A(32,15,33)           108.6066         estimate D2E/DX2                !
 ! A41   A(12,16,20)           119.3555         estimate D2E/DX2                !
 ! A42   A(12,16,21)           119.365          estimate D2E/DX2                !
 ! A43   A(20,16,21)           121.2795         estimate D2E/DX2                !
 ! A44   A(2,17,13)            119.6838         estimate D2E/DX2                !
 ! A45   A(2,17,18)            119.5382         estimate D2E/DX2                !
 ! A46   A(13,17,18)           120.778          estimate D2E/DX2                !
 ! A47   A(14,18,17)           120.7366         estimate D2E/DX2                !
 ! A48   A(14,18,34)           119.7837         estimate D2E/DX2                !
 ! A49   A(17,18,34)           119.4797         estimate D2E/DX2                !
 ! A50   A(3,19,4)             123.546          estimate D2E/DX2                !
 ! A51   A(3,19,11)            109.8014         estimate D2E/DX2                !
 ! A52   A(4,19,11)            126.6522         estimate D2E/DX2                !
 ! A53   A(16,20,23)           119.3646         estimate D2E/DX2                !
 ! A54   A(16,20,35)           121.3299         estimate D2E/DX2                !
 ! A55   A(23,20,35)           119.3054         estimate D2E/DX2                !
 ! A56   A(16,21,24)           119.3602         estimate D2E/DX2                !
 ! A57   A(16,21,36)           121.3252         estimate D2E/DX2                !
 ! A58   A(24,21,36)           119.3145         estimate D2E/DX2                !
 ! A59   A(1,22,23)            119.9932         estimate D2E/DX2                !
 ! A60   A(1,22,24)            120.0086         estimate D2E/DX2                !
 ! A61   A(23,22,24)           119.9982         estimate D2E/DX2                !
 ! A62   A(20,23,22)           119.9992         estimate D2E/DX2                !
 ! A63   A(20,23,37)           119.1456         estimate D2E/DX2                !
 ! A64   A(22,23,37)           120.8552         estimate D2E/DX2                !
 ! A65   A(21,24,22)           119.9983         estimate D2E/DX2                !
 ! A66   A(21,24,38)           118.5759         estimate D2E/DX2                !
 ! A67   A(22,24,38)           121.4249         estimate D2E/DX2                !
 ! A68   A(1,25,40)            109.576          estimate D2E/DX2                !
 ! A69   A(1,25,41)            108.4241         estimate D2E/DX2                !
 ! A70   A(1,25,42)            110.1119         estimate D2E/DX2                !
 ! A71   A(40,25,41)           109.244          estimate D2E/DX2                !
 ! A72   A(40,25,42)           110.1441         estimate D2E/DX2                !
 ! A73   A(41,25,42)           109.3102         estimate D2E/DX2                !
 ! D1    D(5,1,22,23)         -159.5976         estimate D2E/DX2                !
 ! D2    D(5,1,22,24)           20.3401         estimate D2E/DX2                !
 ! D3    D(25,1,22,23)          90.009          estimate D2E/DX2                !
 ! D4    D(25,1,22,24)         -90.0532         estimate D2E/DX2                !
 ! D5    D(5,1,25,40)         -173.8087         estimate D2E/DX2                !
 ! D6    D(5,1,25,41)           67.0364         estimate D2E/DX2                !
 ! D7    D(5,1,25,42)          -52.5125         estimate D2E/DX2                !
 ! D8    D(22,1,25,40)         -63.694          estimate D2E/DX2                !
 ! D9    D(22,1,25,41)         177.1511         estimate D2E/DX2                !
 ! D10   D(22,1,25,42)          57.6023         estimate D2E/DX2                !
 ! D11   D(39,3,19,4)            0.0789         estimate D2E/DX2                !
 ! D12   D(39,3,19,11)         179.8465         estimate D2E/DX2                !
 ! D13   D(8,6,7,10)             0.0058         estimate D2E/DX2                !
 ! D14   D(8,6,7,13)          -179.9954         estimate D2E/DX2                !
 ! D15   D(11,6,7,10)         -179.9415         estimate D2E/DX2                !
 ! D16   D(11,6,7,13)            0.0572         estimate D2E/DX2                !
 ! D17   D(7,6,8,9)              0.0002         estimate D2E/DX2                !
 ! D18   D(7,6,8,15)          -179.9765         estimate D2E/DX2                !
 ! D19   D(11,6,8,9)           179.9415         estimate D2E/DX2                !
 ! D20   D(11,6,8,15)           -0.0352         estimate D2E/DX2                !
 ! D21   D(7,6,11,19)           89.9159         estimate D2E/DX2                !
 ! D22   D(7,6,11,26)          -32.0522         estimate D2E/DX2                !
 ! D23   D(7,6,11,27)         -150.9494         estimate D2E/DX2                !
 ! D24   D(8,6,11,19)          -90.0184         estimate D2E/DX2                !
 ! D25   D(8,6,11,26)          148.0135         estimate D2E/DX2                !
 ! D26   D(8,6,11,27)           29.1163         estimate D2E/DX2                !
 ! D27   D(6,7,10,9)            -0.0091         estimate D2E/DX2                !
 ! D28   D(6,7,10,14)          179.9857         estimate D2E/DX2                !
 ! D29   D(13,7,10,9)          179.992          estimate D2E/DX2                !
 ! D30   D(13,7,10,14)          -0.0132         estimate D2E/DX2                !
 ! D31   D(6,7,13,17)         -179.9896         estimate D2E/DX2                !
 ! D32   D(6,7,13,29)           -0.216          estimate D2E/DX2                !
 ! D33   D(10,7,13,17)           0.009          estimate D2E/DX2                !
 ! D34   D(10,7,13,29)         179.7827         estimate D2E/DX2                !
 ! D35   D(6,8,9,10)            -0.0058         estimate D2E/DX2                !
 ! D36   D(6,8,9,12)          -179.9849         estimate D2E/DX2                !
 ! D37   D(15,8,9,10)          179.9726         estimate D2E/DX2                !
 ! D38   D(15,8,9,12)           -0.0066         estimate D2E/DX2                !
 ! D39   D(6,8,15,31)            1.5147         estimate D2E/DX2                !
 ! D40   D(6,8,15,32)         -118.483          estimate D2E/DX2                !
 ! D41   D(6,8,15,33)          121.1014         estimate D2E/DX2                !
 ! D42   D(9,8,15,31)         -178.4592         estimate D2E/DX2                !
 ! D43   D(9,8,15,32)           61.543          estimate D2E/DX2                !
 ! D44   D(9,8,15,33)          -58.8726         estimate D2E/DX2                !
 ! D45   D(8,9,10,7)             0.0091         estimate D2E/DX2                !
 ! D46   D(8,9,10,14)         -179.9848         estimate D2E/DX2                !
 ! D47   D(12,9,10,7)          179.9888         estimate D2E/DX2                !
 ! D48   D(12,9,10,14)          -0.0051         estimate D2E/DX2                !
 ! D49   D(8,9,12,16)          179.9813         estimate D2E/DX2                !
 ! D50   D(8,9,12,28)            0.0482         estimate D2E/DX2                !
 ! D51   D(10,9,12,16)           0.0056         estimate D2E/DX2                !
 ! D52   D(10,9,12,28)        -179.9275         estimate D2E/DX2                !
 ! D53   D(7,10,14,18)           0.0046         estimate D2E/DX2                !
 ! D54   D(7,10,14,30)        -179.7803         estimate D2E/DX2                !
 ! D55   D(9,10,14,18)         179.9977         estimate D2E/DX2                !
 ! D56   D(9,10,14,30)           0.2128         estimate D2E/DX2                !
 ! D57   D(6,11,19,3)          179.816          estimate D2E/DX2                !
 ! D58   D(6,11,19,4)           -0.4255         estimate D2E/DX2                !
 ! D59   D(26,11,19,3)         -57.008          estimate D2E/DX2                !
 ! D60   D(26,11,19,4)         122.7506         estimate D2E/DX2                !
 ! D61   D(27,11,19,3)          59.4187         estimate D2E/DX2                !
 ! D62   D(27,11,19,4)        -120.8228         estimate D2E/DX2                !
 ! D63   D(9,12,16,20)         -91.0932         estimate D2E/DX2                !
 ! D64   D(9,12,16,21)          88.9203         estimate D2E/DX2                !
 ! D65   D(28,12,16,20)         88.8438         estimate D2E/DX2                !
 ! D66   D(28,12,16,21)        -91.1428         estimate D2E/DX2                !
 ! D67   D(7,13,17,2)          179.9946         estimate D2E/DX2                !
 ! D68   D(7,13,17,18)           0.0033         estimate D2E/DX2                !
 ! D69   D(29,13,17,2)           0.2157         estimate D2E/DX2                !
 ! D70   D(29,13,17,18)       -179.7755         estimate D2E/DX2                !
 ! D71   D(10,14,18,17)          0.0078         estimate D2E/DX2                !
 ! D72   D(10,14,18,34)       -179.9494         estimate D2E/DX2                !
 ! D73   D(30,14,18,17)        179.8101         estimate D2E/DX2                !
 ! D74   D(30,14,18,34)         -0.1471         estimate D2E/DX2                !
 ! D75   D(12,16,20,23)       -179.9911         estimate D2E/DX2                !
 ! D76   D(12,16,20,35)          0.0207         estimate D2E/DX2                !
 ! D77   D(21,16,20,23)         -0.0048         estimate D2E/DX2                !
 ! D78   D(21,16,20,35)       -179.9931         estimate D2E/DX2                !
 ! D79   D(12,16,21,24)        179.9954         estimate D2E/DX2                !
 ! D80   D(12,16,21,36)         -0.0725         estimate D2E/DX2                !
 ! D81   D(20,16,21,24)          0.0091         estimate D2E/DX2                !
 ! D82   D(20,16,21,36)        179.9412         estimate D2E/DX2                !
 ! D83   D(2,17,18,14)         179.9968         estimate D2E/DX2                !
 ! D84   D(2,17,18,34)          -0.0458         estimate D2E/DX2                !
 ! D85   D(13,17,18,14)         -0.0119         estimate D2E/DX2                !
 ! D86   D(13,17,18,34)        179.9454         estimate D2E/DX2                !
 ! D87   D(16,20,23,22)         -0.0095         estimate D2E/DX2                !
 ! D88   D(16,20,23,37)       -179.9699         estimate D2E/DX2                !
 ! D89   D(35,20,23,22)        179.979          estimate D2E/DX2                !
 ! D90   D(35,20,23,37)          0.0186         estimate D2E/DX2                !
 ! D91   D(16,21,24,22)          0.0008         estimate D2E/DX2                !
 ! D92   D(16,21,24,38)        179.6699         estimate D2E/DX2                !
 ! D93   D(36,21,24,22)       -179.9326         estimate D2E/DX2                !
 ! D94   D(36,21,24,38)         -0.2636         estimate D2E/DX2                !
 ! D95   D(1,22,23,20)         179.9571         estimate D2E/DX2                !
 ! D96   D(1,22,23,37)          -0.0832         estimate D2E/DX2                !
 ! D97   D(24,22,23,20)          0.0193         estimate D2E/DX2                !
 ! D98   D(24,22,23,37)        179.979          estimate D2E/DX2                !
 ! D99   D(1,22,24,21)        -179.9527         estimate D2E/DX2                !
 ! D100  D(1,22,24,38)           0.3879         estimate D2E/DX2                !
 ! D101  D(23,22,24,21)         -0.015          estimate D2E/DX2                !
 ! D102  D(23,22,24,38)       -179.6744         estimate D2E/DX2                !
 --------------------------------------------------------------------------------
 Trust Radius=3.00D-01 FncErr=1.00D-07 GrdErr=1.00D-06 EigMax=2.50D+02 EigMin=1.00D-04
 Number of steps in this run=    229 maximum allowed number of steps=    252.
 GradGradGradGradGradGradGradGradGradGradGradGradGradGradGradGradGradGrad

                          Input orientation:                          
 ---------------------------------------------------------------------
 Center     Atomic      Atomic             Coordinates (Angstroms)
 Number     Number       Type             X           Y           Z
 ---------------------------------------------------------------------
      1         16           0       -6.015800   -0.146800   -0.553500
      2          9           0        1.817600   -4.262900    0.182300
      3          8           0        6.424000    0.462100   -0.477000
      4          8           0        4.539100    0.589300   -1.744200
      5          8           0       -6.740400    0.092500    0.741900
      6          6           0        2.912900    0.554200    0.524300
      7          6           0        2.090000   -0.659800    0.374200
      8          6           0        2.087900    1.622400    0.475200
      9          6           0        0.711200    1.160500    0.293700
     10          6           0        0.738700   -0.301900    0.231900
     11          6           0        4.388000    0.485400    0.692600
     12          6           0       -0.391100    1.913400    0.197900
     13          6           0        2.469700   -1.994100    0.359500
     14          6           0       -0.250900   -1.258400    0.073400
     15          6           0        2.439200    3.067200    0.579900
     16          6           0       -1.762700    1.410600    0.014800
     17          6           0        1.478600   -2.966500    0.200200
     18          6           0        0.130300   -2.601600    0.058300
     19          6           0        5.077300    0.521700   -0.649400
     20          6           0       -2.263100    1.253400   -1.268000
     21          6           0       -2.528600    1.103900    1.128700
     22          6           0       -4.345200    0.464100   -0.330100
     23          6           0       -3.562700    0.777200   -1.441700
     24          6           0       -3.828200    0.627600    0.955100
     25          6           0       -5.615900   -1.913500   -0.620200
     26          1           0        4.688300   -0.418700    1.231600
     27          1           0        4.739600    1.343800    1.275700
     28          1           0       -0.324700    2.997600    0.252700
     29          1           0        3.506100   -2.296100    0.463900
     30          1           0       -1.301100   -1.047500   -0.043600
     31          1           0        3.517200    3.221100    0.685400
     32          1           0        1.954500    3.520300    1.450900
     33          1           0        2.120900    3.607800   -0.317700
     34          1           0       -0.622900   -3.375100   -0.065200
     35          1           0       -1.663300    1.493500   -2.141900
     36          1           0       -2.136600    1.226000    2.135000
     37          1           0       -3.951400    0.654800   -2.449400
     38          1           0       -4.415400    0.386000    1.837000
     39          1           0        6.903000    0.481300   -1.332900
     40          1           0       -4.991600   -2.114800   -1.494000
     41          1           0       -6.548800   -2.475700   -0.706900
     42          1           0       -5.095400   -2.215600    0.291800
 ---------------------------------------------------------------------
                    Distance matrix (angstroms):
                    1          2          3          4          5
     1  S    0.000000
     2  F    8.879518   0.000000
     3  O   12.454928   6.631683   0.000000
     4  O   10.647325   5.887428   2.274824   0.000000
     5  O    1.503453   9.618837  13.225874  11.560909   0.000000
     6  C    9.020795   4.951878   3.652247   2.791389   9.666784
     7  C    8.174827   3.618474   4.557056   3.470729   8.870013
     8  C    8.358125   5.898780   4.588545   3.464306   8.963850
     9  C    6.905021   5.536226   5.806705   4.374028   7.541077
    10  C    6.801778   4.105607   5.780041   4.375186   7.506836
    11  C   10.497214   5.423441   2.348149   2.443690  11.135443
    12  C    6.037075   6.559366   7.000525   5.461855   6.627611
    13  C    8.732113   2.367295   4.729602   3.921980   9.451247
    14  C    5.904467   3.649325   6.915009   5.446262   6.662239
    15  C    9.115998   7.367146   4.876701   3.993871   9.650914
    16  C    4.564791   6.710828   8.256124   6.594035   5.200342
    17  C    8.042686   1.340110   6.055649   5.078490   8.786517
    18  C    6.646419   2.371134   7.020218   5.733094   7.411613
    19  C   11.113638   5.848912   1.358998   1.221809  11.907055
    20  C    4.068640   7.013205   8.758855   6.851111   5.043174
    21  C    4.068736   6.970486   9.118071   7.646617   4.348770
    22  C    1.792766   7.783777  10.770202   8.997007   2.650331
    23  C    2.767738   7.549014  10.038133   8.109622   3.915955
    24  C    2.767881   7.509279  10.353063   8.792008   2.968618
    25  C    1.812622   7.837130  12.272863  10.519097   2.672799
    26  H   10.855334   4.911194   2.589938   3.145427  11.450603
    27  H   11.011198   6.416283   2.585837   3.119177  11.560324
    28  H    6.551781   7.570288   7.246114   5.783085   7.059754
    29  H    9.814335   2.607419   4.123967   3.777344  10.524897
    30  H    4.826972   4.485100   7.883140   6.299134   5.612717
    31  H   10.186055   7.691034   4.172858   3.724729  10.724257
    32  H    8.999496   7.887096   5.748549   5.047730   9.373035
    33  H    8.964291   7.892396   5.332680   4.122370   9.591805
    34  H    6.304263   2.608733   8.034456   6.721737   7.078098
    35  H    4.915064   7.117212   8.321064   6.280566   6.004669
    36  H    4.915364   7.041076   8.982759   7.747164   4.941713
    37  H    2.915261   8.024399  10.562974   8.519988   4.275406
    38  H    2.925687   7.949880  11.083906   9.646211   2.586699
    39  H   12.957522   7.117904   0.981007   2.401844  13.805735
    40  H    2.409678   7.334134  11.746941   9.910045   3.595792
    41  H    2.394033   8.601245  13.303273  11.550400   2.954891
    42  H    2.416941   7.210617  11.851485  10.238962   2.869833
                    6          7          8          9         10
     6  C    0.000000
     7  C    1.474276   0.000000
     8  C    1.350588   2.284435   0.000000
     9  C    2.295269   2.284964   1.463420   0.000000
    10  C    2.354899   1.405117   2.362724   1.463964   0.000000
    11  C    1.486263   2.587212   2.574974   3.759487   3.761579
    12  C    3.587531   3.578868   2.511378   1.338320   2.486998
    13  C    2.591798   1.387352   3.638438   3.612223   2.424084
    14  C    3.674025   2.434875   3.732350   2.612517   1.385396
    15  C    2.557861   3.748971   1.490577   2.589092   3.789939
    16  C    4.780612   4.388510   3.883806   2.502102   3.039209
    17  C    3.815440   2.392687   4.637335   4.198782   2.765601
    18  C    4.233095   2.776833   4.674204   3.813955   2.385143
    19  C    2.462368   3.371596   3.378280   4.512242   4.503161
    20  C    5.521974   5.030570   4.701713   3.360654   3.698576
    21  C    5.502490   5.001137   4.691266   3.346152   3.668211
    22  C    7.308771   6.570463   6.585966   5.142109   5.171909
    23  C    6.771136   6.108640   6.026454   4.628688   4.739983
    24  C    6.755250   6.084401   6.018320   4.618180   4.716308
    25  C    8.952087   7.870292   8.546989   7.093439   6.610921
    26  H    2.144494   2.746712   3.391211   4.380737   4.075829
    27  H    2.127182   3.442019   2.783870   4.150413   4.450286
    28  H    4.065221   4.384303   2.785915   2.109433   3.466692
    29  H    2.912000   2.165840   4.167261   4.448429   3.418941
    30  H    4.543759   3.438667   4.345439   3.006391   2.189202
    31  H    2.739249   4.146701   2.154745   3.503304   4.509684
    32  H    3.251902   4.318666   2.138179   2.907501   4.192057
    33  H    3.265073   4.323435   2.138128   2.889696   4.183096
    34  H    5.318721   3.863386   5.710996   4.741339   3.374431
    35  H    5.378895   5.005469   4.575733   3.417790   3.824656
    36  H    5.342576   4.951849   4.556146   3.391849   3.771421
    37  H    7.481419   6.797014   6.779578   5.433247   5.486500
    38  H    7.446842   6.749349   6.758409   5.409589   5.441902
    39  H    4.401750   5.232711   5.268446   6.437820   6.407854
    40  H    8.583602   7.467011   8.244012   6.815085   6.253133
    41  H   10.010990   8.893545   9.632464   8.181122   7.662533
    42  H    8.476952   7.352365   8.146391   6.716745   6.140241
                   11         12         13         14         15
    11  C    0.000000
    12  C    5.012356   0.000000
    13  C    3.152578   4.845498   0.000000
    14  C    4.994361   3.177337   2.832803   0.000000
    15  C    3.236698   3.080223   5.066188   5.118984   0.000000
    16  C    6.256718   1.472284   5.442794   3.067985   4.551881
    17  C    4.541220   5.225821   1.397576   2.434102   6.121475
    18  C    5.297161   4.547150   2.435687   1.396326   6.143157
    19  C    1.509111   5.705974   3.761211   5.664001   3.866564
    20  C    6.976454   2.467559   5.966105   3.486752   5.368075
    21  C    6.957879   2.467911   5.930622   3.447033   5.369801
    22  C    8.792903   4.244309   7.277442   4.460169   7.323409
    23  C    8.237355   3.746770   6.878537   4.172195   6.734521
    24  C    8.221622   3.747037   6.847744   4.139018   6.735928
    25  C   10.370930   6.527862   8.145136   5.449171   9.546321
    26  H    1.094577   5.683971   2.857382   5.142200   4.199365
    27  H    1.095664   5.273536   4.139257   5.755177   2.957378
    28  H    5.358563   1.087613   5.721638   4.260414   2.784070
    29  H    2.926909   5.742718   1.084541   3.917188   5.469618
    30  H    5.937814   3.106984   3.908641   1.077538   5.595476
    31  H    2.870958   4.150005   5.329332   5.885494   1.094029
    32  H    3.963276   3.107085   5.644926   5.440337   1.094931
    33  H    3.988713   3.073594   5.653454   5.427550   1.095102
    34  H    6.370780   5.300112   3.413460   2.153605   7.162111
    35  H    6.757876   2.696196   5.958359   3.804653   5.168678
    36  H    6.723051   2.696599   5.894018   3.738757   5.171682
    37  H    8.913274   4.611725   7.492471   4.870170   7.472356
    38  H    8.878028   4.605930   7.433201   4.812213   7.466905
    39  H    3.229225   7.589345   5.352193   7.495500   5.501926
    40  H    9.975929   6.344566   7.689020   5.066004   9.293599
    41  H   11.416668   7.615782   9.094091   6.461751  10.637845
    42  H    9.868684   6.260024   7.568645   4.942986   9.206583
                   16         17         18         19         20
    16  C    0.000000
    17  C    5.449716   0.000000
    18  C    4.436563   1.403994   0.000000
    19  C    6.929423   5.083306   5.893102   0.000000
    20  C    1.385889   5.827820   4.727416   7.402670   0.000000
    21  C    1.386160   5.786875   4.684681   7.832644   2.415991
    22  C    2.772025   6.779888   5.438701   9.428084   2.416152
    23  C    2.400539   6.490442   5.225374   8.680013   1.394955
    24  C    2.400738   6.453647   5.186685   9.049506   2.789863
    25  C    5.128354   7.218989   5.826891  10.967022   4.657270
    26  H    6.814862   4.225783   5.188164   2.138652   7.574027
    27  H    6.623763   5.510854   6.188206   2.120354   7.450932
    28  H    2.154764   6.230982   5.621019   6.010447   3.018635
    29  H    6.457675   2.151681   3.413776   3.412932   6.991573
    30  H    2.501748   3.386552   2.115305   6.596466   2.778262
    31  H    5.621829   6.532817   6.765218   3.391513   6.410888
    32  H    4.508968   6.623391   6.537943   4.811937   5.506306
    33  H    4.474438   6.625873   6.531502   4.286530   5.066135
    34  H    4.920210   2.157242   1.086676   6.929547   5.055689
    35  H    2.160580   5.937050   4.982743   6.971918   1.086789
    36  H    2.160816   5.864314   4.909383   7.764617   3.405461
    37  H    3.381408   7.044082   5.792493   9.207342   2.145783
    38  H    3.377430   6.975500   5.723016   9.813865   3.876313
    39  H    8.818971   6.607710   7.570282   1.949868   9.198790
    40  H    5.013055   6.742343   5.374055  10.442568   4.340571
    41  H    6.207329   8.093384   6.723969  12.006411   5.708611
    42  H    4.932843   6.617380   5.245137  10.576507   4.742242
                   21         22         23         24         25
    21  C    0.000000
    22  C    2.416087   0.000000
    23  C    2.789812   1.394988   0.000000
    24  C    1.394976   1.394905   2.416096   0.000000
    25  C    4.657765   2.711424   3.482866   3.483480   0.000000
    26  H    7.376486   9.209906   8.755325   8.584985  10.575449
    27  H    7.273644   9.267473   8.754055   8.603658  11.020019
    28  H    3.034905   4.787765   4.276191   4.287747   7.271702
    29  H    6.958417   8.360147   7.940051   7.910832   9.194158
    30  H    2.740359   3.410801   3.224756   3.192115   4.438459
    31  H    6.421117   8.393427   7.786025   7.794478  10.558514
    32  H    5.103037   7.224856   6.806705   6.484840   9.546025
    33  H    5.475348   7.189816   6.448177   6.774467   9.509697
    34  H    5.011839   5.353984   5.270557   5.228438   5.232050
    35  H    3.405489   3.396303   2.147344   3.876594   5.435648
    36  H    1.086836   3.396340   3.876592   2.147500   5.436278
    37  H    3.876706   2.163996   1.086981   3.406837   3.565487
    38  H    2.139412   2.169643   3.410280   1.086702   3.573056
    39  H    9.767404  11.292825  10.470447  10.973377  12.765808
    40  H    4.827520   2.902279   3.226167   3.856468   1.092611
    41  H    5.687264   3.693272   4.476392   4.449087   1.092652
    42  H    4.278778   2.851377   3.782994   3.182695   1.092670
                   26         27         28         29         30
    26  H    0.000000
    27  H    1.763798   0.000000
    28  H    6.144878   5.424824   0.000000
    29  H    2.347678   3.928029   6.537805   0.000000
    30  H    6.155846   6.629399   4.171808   4.992567   0.000000
    31  H    3.862377   2.316672   3.872645   5.521656   6.478302
    32  H    4.799737   3.539015   2.627480   6.100175   5.804934
    33  H    5.020416   3.810802   2.584310   6.114386   5.784205
    34  H    6.215371   7.267905   6.387589   4.300329   2.424488
    35  H    7.441763   7.259444   3.128622   6.919101   3.315227
    36  H    7.078166   6.930685   3.156676   6.858413   3.257785
    37  H    9.452332   9.480747   5.093428   8.532844   3.963558
    38  H    9.159225   9.222064   5.105320   8.475212   3.910300
    39  H    3.505932   3.496999   7.815724   4.741452   8.444334
    40  H   10.198339  10.692493   7.139156   8.722221   4.106407
    41  H   11.587124  12.080863   8.343696  10.124428   5.478876
    42  H    9.991639  10.505456   7.066722   8.603598   3.984177
                   31         32         33         34         35
    31  H    0.000000
    32  H    1.765656   0.000000
    33  H    1.762215   1.778564   0.000000
    34  H    7.823917   7.515856   7.506869   0.000000
    35  H    6.149456   5.486767   4.702993   5.394292   0.000000
    36  H    6.168243   4.740138   5.460313   5.319990   4.311316
    37  H    8.496638   7.635646   7.080761   5.744860   2.456293
    38  H    8.502360   7.109749   7.599075   5.669858   4.963089
    39  H    4.800383   6.439931   5.802940   8.550910   8.663748
    40  H   10.277222   9.416745   9.204319   4.766064   4.951483
    41  H   11.649738  10.626111  10.598309   6.028017   6.456151
    42  H   10.192620   9.162159   9.292925   4.634128   5.608888
                   36         37         38         39         40
    36  H    0.000000
    37  H    4.963516   0.000000
    38  H    2.446903   4.319812   0.000000
    39  H    9.710576  10.913051  11.754298   0.000000
    40  H    5.699264   3.108937   4.204946  12.175681   0.000000
    41  H    6.422343   4.425248   4.383167  13.787191   1.781754
    42  H    4.898622   4.130631   3.101349  12.404617   1.791652
                   41         42
    41  H    0.000000
    42  H    1.782533   0.000000
 Stoichiometry    C20H17FO3S
 Framework group  C1[X(C20H17FO3S)]
 Deg. of freedom   120
 Full point group                 C1      NOp   1
 Largest Abelian subgroup         C1      NOp   1
 Largest concise Abelian subgroup C1      NOp   1
                         Standard orientation:                         
 ---------------------------------------------------------------------
 Center     Atomic      Atomic             Coordinates (Angstroms)
 Number     Number       Type             X           Y           Z
 ---------------------------------------------------------------------
      1         16           0       -5.752488   -0.017820    0.471606
      2          9           0        1.989565    4.269722   -0.251873
      3          8           0        6.698253   -0.339767    0.496520
      4          8           0        4.806890   -0.496197    1.750752
      5          8           0       -6.461189   -0.288420   -0.826427
      6          6           0        3.198178   -0.524321   -0.530280
      7          6           0        2.346381    0.671946   -0.400363
      8          6           0        2.397640   -1.610687   -0.475195
      9          6           0        1.009283   -1.178721   -0.309460
     10          6           0        1.002607    0.284528   -0.264229
     11          6           0        4.672578   -0.423339   -0.688156
     12          6           0       -0.076101   -1.955776   -0.213401
     13          6           0        2.695120    2.014749   -0.398086
     14          6           0       -0.009976    1.219621   -0.124226
     15          6           0        2.782936   -3.048069   -0.560648
     16          6           0       -1.460314   -1.482787   -0.046496
     17          6           0        1.680666    2.965711   -0.257476
     18          6           0        0.340056    2.571361   -0.121639
     19          6           0        5.351971   -0.428537    0.659366
     20          6           0       -1.974260   -1.322725    1.230582
     21          6           0       -2.224304   -1.206473   -1.169621
     22          6           0       -4.066558   -0.592415    0.267914
     23          6           0       -3.285808   -0.874769    1.388939
     24          6           0       -3.535852   -0.758419   -1.011365
     25          6           0       -5.393922    1.758294    0.521072
     26          1           0        4.956198    0.481319   -1.235195
     27          1           0        5.048424   -1.279909   -1.258687
     28          1           0        0.015681   -3.038700   -0.255257
     29          1           0        3.725078    2.339433   -0.498073
     30          1           0       -1.055926    0.985831   -0.012789
     31          1           0        3.864990   -3.178185   -0.656190
     32          1           0        2.315655   -3.522060   -1.430048
     33          1           0        2.470132   -3.585714    0.340651
     34          1           0       -0.431707    3.328585   -0.012739
     35          1           0       -1.375971   -1.539010    2.111706
     36          1           0       -1.821705   -1.330832   -2.171450
     37          1           0       -3.685125   -0.750018    2.392190
     38          1           0       -4.121518   -0.540432   -1.900410
     39          1           0        7.170832   -0.338222    1.356195
     40          1           0       -4.781306    1.983827    1.397220
     41          1           0       -6.340176    2.299718    0.594235
     42          1           0       -4.873373    2.062031   -0.390355
 ---------------------------------------------------------------------
 Rotational constants (GHZ):           0.4101934           0.0932002           0.0808926
 Standard basis: 6-311++G(d,p) (5D, 7F)
 There are   702 symmetry adapted cartesian basis functions of A   symmetry.
 There are   677 symmetry adapted basis functions of A   symmetry.
   677 basis functions,  1067 primitive gaussians,   702 cartesian basis functions
    93 alpha electrons       93 beta electrons
       nuclear repulsion energy      2195.0294798132 Hartrees.
 NAtoms=   42 NActive=   42 NUniq=   42 SFac= 1.00D+00 NAtFMM=   60 NAOKFM=F Big=F
 Integral buffers will be    131072 words long.
 Raffenetti 2 integral format.
 Two-electron integral symmetry is turned on.
 ------------------------------------------------------------------------------
 Polarizable Continuum Model (PCM)
 =================================
 Model                : PCM.
 Atomic radii         : UFF (Universal Force Field).
 Polarization charges : Total charges.
 Charge compensation  : None.
 Solution method      : On-the-fly selection.
 Cavity type          : Scaled VdW (van der Waals Surface) (Alpha=1.100).
 Cavity algorithm     : GePol (No added spheres)
                        Default sphere list used, NSphG=   42.
                        Lebedev-Laikov grids with approx.  5.0 points / Ang**2.
                        Smoothing algorithm: York/Karplus (Gamma=1.0000).
                        Polarization charges: spherical gaussians, with
                                              point-specific exponents (IZeta= 3).
                        Self-potential: point-specific (ISelfS= 7).
                        Self-field    : sphere-specific E.n sum rule (ISelfD= 2).
 1st derivatives      : Analytical E(r).r(x)/FMM algorithm (CHGder, D1EAlg=3).
                        Cavity 1st derivative terms included.
 Solvent              : Water, Eps=  78.355300 Eps(inf)=   1.777849
 ------------------------------------------------------------------------------
 One-electron integrals computed using PRISM.
 NBasis=   677 RedAO= T EigKep=  1.02D-06  NBF=   677
 NBsUse=   669 1.00D-06 EigRej=  7.03D-07 NBFU=   669
 ExpMin= 3.60D-02 ExpMax= 9.34D+04 ExpMxC= 3.17D+03 IAcc=3 IRadAn=         5 AccDes= 0.00D+00
 Harris functional with IExCor=  402 and IRadAn=       5 diagonalized for initial guess.
 HarFok:  IExCor=  402 AccDes= 0.00D+00 IRadAn=         5 IDoV= 1 UseB2=F ITyADJ=14
 ICtDFT=  3500011 ScaDFX=  1.000000  1.000000  1.000000  1.000000
 FoFCou: FMM=F IPFlag=           0 FMFlag=      100000 FMFlg1=           0
         NFxFlg=           0 DoJE=T BraDBF=F KetDBF=T FulRan=T
         wScrn=  0.000000 ICntrl=       500 IOpCl=  0 I1Cent=   200000004 NGrid=           0
         NMat0=    1 NMatS0=      1 NMatT0=    0 NMatD0=    1 NMtDS0=    0 NMtDT0=    0
 Petite list used in FoFCou.
 Requested convergence on RMS density matrix=1.00D-08 within 128 cycles.
 Requested convergence on MAX density matrix=1.00D-06.
 Requested convergence on             energy=1.00D-06.
 No special actions if energy rises.
 Inv3:  Mode=1 IEnd=    33406707.
 Iteration    1 A*A^-1 deviation from unit magnitude is 5.77D-15 for   3324.
 Iteration    1 A*A^-1 deviation from orthogonality  is 2.01D-15 for   3331   3205.
 Iteration    1 A^-1*A deviation from unit magnitude is 5.77D-15 for   3324.
 Iteration    1 A^-1*A deviation from orthogonality  is 4.49D-14 for   2720   2716.
 Error on total polarization charges =  0.02049
 SCF Done:  E(RB3LYP) =  -1496.36486260     A.U. after   16 cycles
            NFock= 16  Conv=0.62D-08     -V/T= 2.0032

 **********************************************************************

            Population analysis using the SCF Density.

 **********************************************************************

 Orbital symmetries:
       Occupied  (A) (A) (A) (A) (A) (A) (A) (A) (A) (A) (A) (A)
                 (A) (A) (A) (A) (A) (A) (A) (A) (A) (A) (A) (A)
                 (A) (A) (A) (A) (A) (A) (A) (A) (A) (A) (A) (A)
                 (A) (A) (A) (A) (A) (A) (A) (A) (A) (A) (A) (A)
                 (A) (A) (A) (A) (A) (A) (A) (A) (A) (A) (A) (A)
                 (A) (A) (A) (A) (A) (A) (A) (A) (A) (A) (A) (A)
                 (A) (A) (A) (A) (A) (A) (A) (A) (A) (A) (A) (A)
                 (A) (A) (A) (A) (A) (A) (A) (A) (A)
       Virtual   (A) (A) (A) (A) (A) (A) (A) (A) (A) (A) (A) (A)
                 (A) (A) (A) (A) (A) (A) (A) (A) (A) (A) (A) (A)
                 (A) (A) (A) (A) (A) (A) (A) (A) (A) (A) (A) (A)
                 (A) (A) (A) (A) (A) (A) (A) (A) (A) (A) (A) (A)
                 (A) (A) (A) (A) (A) (A) (A) (A) (A) (A) (A) (A)
                 (A) (A) (A) (A) (A) (A) (A) (A) (A) (A) (A) (A)
                 (A) (A) (A) (A) (A) (A) (A) (A) (A) (A) (A) (A)
                 (A) (A) (A) (A) (A) (A) (A) (A) (A) (A) (A) (A)
                 (A) (A) (A) (A) (A) (A) (A) (A) (A) (A) (A) (A)
                 (A) (A) (A) (A) (A) (A) (A) (A) (A) (A) (A) (A)
                 (A) (A) (A) (A) (A) (A) (A) (A) (A) (A) (A) (A)
                 (A) (A) (A) (A) (A) (A) (A) (A) (A) (A) (A) (A)
                 (A) (A) (A) (A) (A) (A) (A) (A) (A) (A) (A) (A)
                 (A) (A) (A) (A) (A) (A) (A) (A) (A) (A) (A) (A)
                 (A) (A) (A) (A) (A) (A) (A) (A) (A) (A) (A) (A)
                 (A) (A) (A) (A) (A) (A) (A) (A) (A) (A) (A) (A)
                 (A) (A) (A) (A) (A) (A) (A) (A) (A) (A) (A) (A)
                 (A) (A) (A) (A) (A) (A) (A) (A) (A) (A) (A) (A)
                 (A) (A) (A) (A) (A) (A) (A) (A) (A) (A) (A) (A)
                 (A) (A) (A) (A) (A) (A) (A) (A) (A) (A) (A) (A)
                 (A) (A) (A) (A) (A) (A) (A) (A) (A) (A) (A) (A)
                 (A) (A) (A) (A) (A) (A) (A) (A) (A) (A) (A) (A)
                 (A) (A) (A) (A) (A) (A) (A) (A) (A) (A) (A) (A)
                 (A) (A) (A) (A) (A) (A) (A) (A) (A) (A) (A) (A)
                 (A) (A) (A) (A) (A) (A) (A) (A) (A) (A) (A) (A)
                 (A) (A) (A) (A) (A) (A) (A) (A) (A) (A) (A) (A)
                 (A) (A) (A) (A) (A) (A) (A) (A) (A) (A) (A) (A)
                 (A) (A) (A) (A) (A) (A) (A) (A) (A) (A) (A) (A)
                 (A) (A) (A) (A) (A) (A) (A) (A) (A) (A) (A) (A)
                 (A) (A) (A) (A) (A) (A) (A) (A) (A) (A) (A) (A)
                 (A) (A) (A) (A) (A) (A) (A) (A) (A) (A) (A) (A)
                 (A) (A) (A) (A) (A) (A) (A) (A) (A) (A) (A) (A)
                 (A) (A) (A) (A) (A) (A) (A) (A) (A) (A) (A) (A)
                 (A) (A) (A) (A) (A) (A) (A) (A) (A) (A) (A) (A)
                 (A) (A) (A) (A) (A) (A) (A) (A) (A) (A) (A) (A)
                 (A) (A) (A) (A) (A) (A) (A) (A) (A) (A) (A) (A)
                 (A) (A) (A) (A) (A) (A) (A) (A) (A) (A) (A) (A)
                 (A) (A) (A) (A) (A) (A) (A) (A) (A) (A) (A) (A)
                 (A) (A) (A) (A) (A) (A) (A) (A) (A) (A) (A) (A)
                 (A) (A) (A) (A) (A) (A) (A) (A) (A) (A) (A) (A)
                 (A) (A) (A) (A) (A) (A) (A) (A) (A) (A) (A) (A)
                 (A) (A) (A) (A) (A) (A) (A) (A) (A) (A) (A) (A)
                 (A) (A) (A) (A) (A) (A) (A) (A) (A) (A) (A) (A)
                 (A) (A) (A) (A) (A) (A) (A) (A) (A) (A) (A) (A)
                 (A) (A) (A) (A) (A) (A) (A) (A) (A) (A) (A) (A)
                 (A) (A) (A) (A) (A) (A) (A) (A) (A) (A) (A) (A)
                 (A) (A) (A) (A) (A) (A) (A) (A) (A) (A) (A) (A)
                 (A) (A) (A) (A) (A) (A) (A) (A) (A) (A) (A) (A)
 The electronic state is 1-A.
 Alpha  occ. eigenvalues --  -88.96272 -24.70376 -19.18440 -19.13459 -19.09801
 Alpha  occ. eigenvalues --  -10.32851 -10.26936 -10.21489 -10.20323 -10.20213
 Alpha  occ. eigenvalues --  -10.20074 -10.20049 -10.19760 -10.19554 -10.19344
 Alpha  occ. eigenvalues --  -10.19301 -10.19240 -10.19198 -10.19140 -10.18980
 Alpha  occ. eigenvalues --  -10.18906 -10.18790 -10.18513 -10.18380 -10.17303
 Alpha  occ. eigenvalues --   -8.04013  -6.00303  -6.00148  -5.99574  -1.24643
 Alpha  occ. eigenvalues --   -1.11871  -1.03602  -1.03465  -0.90860  -0.88912
 Alpha  occ. eigenvalues --   -0.84766  -0.82636  -0.80185  -0.77446  -0.77067
 Alpha  occ. eigenvalues --   -0.76561  -0.75985  -0.73293  -0.69662  -0.67410
 Alpha  occ. eigenvalues --   -0.64854  -0.63288  -0.62676  -0.61518  -0.60168
 Alpha  occ. eigenvalues --   -0.57534  -0.56312  -0.53075  -0.52445  -0.51790
 Alpha  occ. eigenvalues --   -0.51014  -0.49825  -0.49405  -0.49029  -0.48566
 Alpha  occ. eigenvalues --   -0.48519  -0.46873  -0.46060  -0.45784  -0.45570
 Alpha  occ. eigenvalues --   -0.44833  -0.44616  -0.44168  -0.43499  -0.43143
 Alpha  occ. eigenvalues --   -0.42203  -0.41539  -0.40760  -0.40061  -0.39877
 Alpha  occ. eigenvalues --   -0.39482  -0.38725  -0.38337  -0.37923  -0.37568
 Alpha  occ. eigenvalues --   -0.36939  -0.35262  -0.34374  -0.34017  -0.32704
 Alpha  occ. eigenvalues --   -0.30381  -0.29485  -0.29284  -0.27950  -0.27679
 Alpha  occ. eigenvalues --   -0.24718  -0.24231  -0.22780
 Alpha virt. eigenvalues --   -0.07554  -0.04476  -0.03745  -0.02690  -0.02297
 Alpha virt. eigenvalues --   -0.01251  -0.00551   0.00151   0.00508   0.00846
 Alpha virt. eigenvalues --    0.01194   0.01516   0.01796   0.02088   0.02642
 Alpha virt. eigenvalues --    0.03035   0.03222   0.03494   0.04223   0.04239
 Alpha virt. eigenvalues --    0.04652   0.05029   0.05311   0.05733   0.05911
 Alpha virt. eigenvalues --    0.05991   0.06252   0.06945   0.07103   0.07539
 Alpha virt. eigenvalues --    0.07626   0.07996   0.08428   0.08712   0.08893
 Alpha virt. eigenvalues --    0.09565   0.09650   0.09820   0.10321   0.10390
 Alpha virt. eigenvalues --    0.10733   0.11114   0.11341   0.11404   0.11711
 Alpha virt. eigenvalues --    0.11793   0.11912   0.12082   0.12638   0.13061
 Alpha virt. eigenvalues --    0.13191   0.13307   0.13589   0.13692   0.13901
 Alpha virt. eigenvalues --    0.14032   0.14385   0.14548   0.14690   0.14846
 Alpha virt. eigenvalues --    0.15207   0.15396   0.15552   0.15706   0.15798
 Alpha virt. eigenvalues --    0.16083   0.16212   0.16581   0.16855   0.17211
 Alpha virt. eigenvalues --    0.17246   0.17392   0.17739   0.17973   0.18358
 Alpha virt. eigenvalues --    0.18554   0.18841   0.19172   0.19417   0.19743
 Alpha virt. eigenvalues --    0.20227   0.20554   0.21031   0.21222   0.21323
 Alpha virt. eigenvalues --    0.21922   0.22394   0.22531   0.22802   0.23103
 Alpha virt. eigenvalues --    0.23351   0.23471   0.23605   0.23993   0.24407
 Alpha virt. eigenvalues --    0.24556   0.25000   0.25254   0.25776   0.26022
 Alpha virt. eigenvalues --    0.26045   0.26226   0.26624   0.26957   0.27407
 Alpha virt. eigenvalues --    0.27556   0.27810   0.28267   0.28381   0.28791
 Alpha virt. eigenvalues --    0.28825   0.28928   0.29417   0.29704   0.30210
 Alpha virt. eigenvalues --    0.30257   0.30572   0.30626   0.30994   0.31394
 Alpha virt. eigenvalues --    0.31816   0.32137   0.32442   0.32589   0.32879
 Alpha virt. eigenvalues --    0.32942   0.33563   0.33825   0.33937   0.34122
 Alpha virt. eigenvalues --    0.34525   0.34855   0.34939   0.35103   0.35842
 Alpha virt. eigenvalues --    0.36138   0.36235   0.36515   0.36830   0.37214
 Alpha virt. eigenvalues --    0.37330   0.37536   0.38269   0.38357   0.39021
 Alpha virt. eigenvalues --    0.39601   0.40135   0.41002   0.41137   0.41653
 Alpha virt. eigenvalues --    0.41748   0.42669   0.43618   0.43741   0.44192
 Alpha virt. eigenvalues --    0.45092   0.45577   0.45774   0.46522   0.47774
 Alpha virt. eigenvalues --    0.49436   0.50751   0.51379   0.51541   0.52605
 Alpha virt. eigenvalues --    0.52948   0.53242   0.53721   0.54063   0.54638
 Alpha virt. eigenvalues --    0.55234   0.56113   0.56327   0.56672   0.56920
 Alpha virt. eigenvalues --    0.57392   0.58216   0.58491   0.59655   0.59841
 Alpha virt. eigenvalues --    0.60090   0.60467   0.61401   0.61779   0.62049
 Alpha virt. eigenvalues --    0.62280   0.63321   0.64165   0.64354   0.64511
 Alpha virt. eigenvalues --    0.65269   0.66237   0.66447   0.66734   0.67061
 Alpha virt. eigenvalues --    0.67557   0.68398   0.68685   0.68901   0.69363
 Alpha virt. eigenvalues --    0.69565   0.69748   0.70577   0.70933   0.71326
 Alpha virt. eigenvalues --    0.71919   0.72259   0.72910   0.73122   0.73685
 Alpha virt. eigenvalues --    0.73953   0.74688   0.74810   0.75458   0.75561
 Alpha virt. eigenvalues --    0.76208   0.76660   0.77374   0.78118   0.79370
 Alpha virt. eigenvalues --    0.79641   0.80100   0.80397   0.81617   0.81983
 Alpha virt. eigenvalues --    0.82797   0.83753   0.84122   0.84617   0.86246
 Alpha virt. eigenvalues --    0.87140   0.87929   0.88888   0.89885   0.90408
 Alpha virt. eigenvalues --    0.90587   0.91043   0.91456   0.91771   0.92295
 Alpha virt. eigenvalues --    0.92792   0.93300   0.94796   0.95276   0.95774
 Alpha virt. eigenvalues --    0.96864   0.97731   0.98084   0.98801   0.98931
 Alpha virt. eigenvalues --    0.99247   0.99999   1.00433   1.01349   1.02526
 Alpha virt. eigenvalues --    1.02828   1.03543   1.04478   1.05239   1.06067
 Alpha virt. eigenvalues --    1.06841   1.06850   1.08326   1.08550   1.08978
 Alpha virt. eigenvalues --    1.09450   1.10100   1.10515   1.11144   1.11185
 Alpha virt. eigenvalues --    1.12709   1.14090   1.14454   1.15197   1.15992
 Alpha virt. eigenvalues --    1.17422   1.17569   1.18453   1.18654   1.19200
 Alpha virt. eigenvalues --    1.19899   1.20669   1.21105   1.22002   1.23909
 Alpha virt. eigenvalues --    1.24699   1.24964   1.26187   1.28076   1.29655
 Alpha virt. eigenvalues --    1.32039   1.32468   1.34254   1.36675   1.36920
 Alpha virt. eigenvalues --    1.37663   1.39887   1.42688   1.42926   1.43118
 Alpha virt. eigenvalues --    1.44034   1.44757   1.45773   1.46703   1.47671
 Alpha virt. eigenvalues --    1.47886   1.48667   1.50061   1.50294   1.51128
 Alpha virt. eigenvalues --    1.52747   1.53650   1.53992   1.54909   1.55175
 Alpha virt. eigenvalues --    1.55989   1.56545   1.56905   1.57127   1.58512
 Alpha virt. eigenvalues --    1.59169   1.59706   1.60023   1.60835   1.61145
 Alpha virt. eigenvalues --    1.61916   1.62076   1.62620   1.63416   1.64491
 Alpha virt. eigenvalues --    1.65522   1.66407   1.67227   1.67820   1.68426
 Alpha virt. eigenvalues --    1.69257   1.69370   1.69824   1.70782   1.70874
 Alpha virt. eigenvalues --    1.71149   1.72694   1.74095   1.74530   1.74928
 Alpha virt. eigenvalues --    1.75871   1.76566   1.77186   1.78833   1.79324
 Alpha virt. eigenvalues --    1.80848   1.82911   1.84433   1.85117   1.86058
 Alpha virt. eigenvalues --    1.87223   1.87975   1.88775   1.89359   1.90430
 Alpha virt. eigenvalues --    1.91893   1.92285   1.92980   1.93688   1.93766
 Alpha virt. eigenvalues --    1.94497   1.95269   1.95386   1.95843   1.97376
 Alpha virt. eigenvalues --    1.97587   1.98625   1.99783   2.00823   2.01143
 Alpha virt. eigenvalues --    2.01823   2.02468   2.04167   2.04210   2.05293
 Alpha virt. eigenvalues --    2.06043   2.06318   2.07412   2.07738   2.08220
 Alpha virt. eigenvalues --    2.11589   2.11899   2.12930   2.14153   2.14537
 Alpha virt. eigenvalues --    2.16116   2.17721   2.18710   2.19468   2.20584
 Alpha virt. eigenvalues --    2.22236   2.23974   2.25021   2.28033   2.28989
 Alpha virt. eigenvalues --    2.29831   2.31167   2.33918   2.35318   2.36537
 Alpha virt. eigenvalues --    2.39143   2.39667   2.40111   2.42980   2.44732
 Alpha virt. eigenvalues --    2.45872   2.46126   2.46894   2.47503   2.49523
 Alpha virt. eigenvalues --    2.51171   2.51714   2.52467   2.52812   2.55241
 Alpha virt. eigenvalues --    2.56028   2.56440   2.57014   2.58894   2.59894
 Alpha virt. eigenvalues --    2.60977   2.61736   2.62055   2.63950   2.65874
 Alpha virt. eigenvalues --    2.65993   2.68531   2.70165   2.71206   2.73340
 Alpha virt. eigenvalues --    2.73581   2.73772   2.74587   2.74799   2.75176
 Alpha virt. eigenvalues --    2.75673   2.76172   2.77776   2.78481   2.79528
 Alpha virt. eigenvalues --    2.79951   2.80815   2.82310   2.82962   2.84467
 Alpha virt. eigenvalues --    2.85239   2.85763   2.86244   2.86610   2.88167
 Alpha virt. eigenvalues --    2.88700   2.89768   2.89984   2.91650   2.92180
 Alpha virt. eigenvalues --    2.92790   2.94541   2.95128   2.95757   2.96005
 Alpha virt. eigenvalues --    2.97075   2.97867   2.98041   3.00108   3.01965
 Alpha virt. eigenvalues --    3.03439   3.05724   3.07287   3.07891   3.08492
 Alpha virt. eigenvalues --    3.09568   3.11133   3.15428   3.15876   3.16845
 Alpha virt. eigenvalues --    3.17764   3.18116   3.19007   3.22015   3.24045
 Alpha virt. eigenvalues --    3.24554   3.26264   3.29076   3.32745   3.34615
 Alpha virt. eigenvalues --    3.35481   3.36272   3.38735   3.40061   3.44924
 Alpha virt. eigenvalues --    3.48520   3.49289   3.51460   3.51882   3.56243
 Alpha virt. eigenvalues --    3.59855   3.61716   3.63365   3.66387   3.69283
 Alpha virt. eigenvalues --    3.72818   3.73840   3.74183   3.75217   3.77566
 Alpha virt. eigenvalues --    3.77958   3.79667   3.81593   3.82281   3.83472
 Alpha virt. eigenvalues --    3.85904   3.88094   3.95481   3.98454   3.98563
 Alpha virt. eigenvalues --    4.05098   4.07653   4.12068   4.14281   4.14667
 Alpha virt. eigenvalues --    4.15781   4.19541   4.25243   4.36957   4.44003
 Alpha virt. eigenvalues --    4.54131   4.76409   4.83648   4.86530   4.87329
 Alpha virt. eigenvalues --    4.98515   5.06487   5.06975   5.11377   5.18694
 Alpha virt. eigenvalues --    5.19077   5.35151   5.58249   5.84591   6.31978
 Alpha virt. eigenvalues --    6.44949   6.76262   8.07100  17.37022  17.45743
 Alpha virt. eigenvalues --   17.47622  23.52916  23.64755  23.73638  23.78205
 Alpha virt. eigenvalues --   23.83885  23.91807  23.92590  23.93890  23.95596
 Alpha virt. eigenvalues --   23.96788  23.96900  23.98189  24.06004  24.06373
 Alpha virt. eigenvalues --   24.08273  24.10576  24.16647  24.18556  24.20989
 Alpha virt. eigenvalues --   24.30200  49.86363  49.92412  49.97182  66.79722
 Alpha virt. eigenvalues --  189.22042
          Condensed to atoms (all electrons):
               1          2          3          4          5          6
     1  S   16.326768  -0.000001  -0.000000  -0.000001   0.087330   0.007445
     2  F   -0.000001   9.189835  -0.000005  -0.000001  -0.000000   0.011686
     3  O   -0.000000  -0.000005   7.923833  -0.128410  -0.000000  -0.221978
     4  O   -0.000001  -0.000001  -0.128410   7.970350   0.000000   0.046541
     5  O    0.087330  -0.000000  -0.000000   0.000000   8.502739  -0.000051
     6  C    0.007445   0.011686  -0.221978   0.046541  -0.000051  18.391896
     7  C   -0.002385   0.069585   0.024502   0.049396  -0.000022   0.003815
     8  C   -0.003921   0.007734   0.042320   0.029610  -0.000031   1.565608
     9  C    0.008293  -0.004186   0.004779   0.039811  -0.002063  -3.568312
    10  C    0.016467   0.005297   0.004117   0.022223  -0.000826  -1.533965
    11  C    0.000548   0.006206  -0.072393  -0.265428  -0.000001  -4.653266
    12  C   -0.022574  -0.001067   0.000612   0.003617  -0.003736  -1.010919
    13  C    0.002652  -0.269567  -0.017876  -0.034862   0.000005  -0.971777
    14  C   -0.047227  -0.096791   0.000801   0.011203   0.001690  -3.270869
    15  C   -0.001456   0.000413  -0.029348  -0.029727  -0.000003   0.584528
    16  C    0.035553  -0.000068  -0.000091   0.000845  -0.057999  -0.416411
    17  C    0.012193   0.521122   0.002262  -0.000926   0.000035   0.875232
    18  C    0.013402  -0.203390   0.001079   0.001969   0.000300   0.132420
    19  C    0.000007   0.000588   0.377418   0.592361  -0.000000  -0.305336
    20  C   -0.515143  -0.000181   0.000005  -0.000403  -0.061199   0.255294
    21  C    0.307131  -0.000177  -0.000004   0.000547   0.082176  -0.296736
    22  C   -2.008750   0.000080   0.000000  -0.000020   0.611905  -0.053888
    23  C    1.362336  -0.000140  -0.000001   0.000065   0.653681  -0.128015
    24  C   -0.033229  -0.000122  -0.000000  -0.000041  -1.199151   0.225506
    25  C   -0.317760   0.000010   0.000000   0.000001  -0.118127  -0.004110
    26  H   -0.000004   0.002298  -0.000128  -0.003010  -0.000000   0.103133
    27  H    0.000003  -0.000001  -0.001951   0.001084   0.000000  -0.323666
    28  H   -0.005331  -0.000022   0.000002   0.000125   0.000026  -0.080493
    29  H    0.000099  -0.035589  -0.002292  -0.001181   0.000000  -0.110213
    30  H    0.032357   0.002922  -0.000002  -0.000395   0.000393  -0.051865
    31  H   -0.000028  -0.000000  -0.001468   0.000567  -0.000000   0.139341
    32  H    0.000086   0.000002  -0.000510  -0.001899  -0.000002   0.047417
    33  H    0.000063   0.000006   0.000275   0.002956   0.000000  -0.139422
    34  H   -0.004637  -0.029654   0.000015  -0.000012  -0.000035  -0.004251
    35  H    0.006809   0.000015   0.000001  -0.000036  -0.000442   0.003069
    36  H    0.001721   0.000018   0.000001   0.000024   0.001563  -0.005968
    37  H   -0.011662  -0.000010  -0.000000   0.000000   0.007436   0.000509
    38  H   -0.025459  -0.000012  -0.000000  -0.000000   0.005217   0.000292
    39  H    0.000000  -0.000000   0.272474  -0.005153  -0.000000  -0.006304
    40  H    0.048590   0.000008   0.000000  -0.000000   0.016177  -0.000311
    41  H   -0.081821   0.000000   0.000000   0.000000  -0.004864  -0.000080
    42  H   -0.051752   0.000030   0.000000  -0.000000  -0.000466   0.000235
               7          8          9         10         11         12
     1  S   -0.002385  -0.003921   0.008293   0.016467   0.000548  -0.022574
     2  F    0.069585   0.007734  -0.004186   0.005297   0.006206  -0.001067
     3  O    0.024502   0.042320   0.004779   0.004117  -0.072393   0.000612
     4  O    0.049396   0.029610   0.039811   0.022223  -0.265428   0.003617
     5  O   -0.000022  -0.000031  -0.002063  -0.000826  -0.000001  -0.003736
     6  C    0.003815   1.565608  -3.568312  -1.533965  -4.653266  -1.010919
     7  C   13.457522  -2.669223  -1.827243   0.891995   0.107219  -0.836937
     8  C   -2.669223  17.643276   0.071351  -2.170668   0.826895  -0.382880
     9  C   -1.827243   0.071351  15.187691   0.214438  -0.930001   0.945281
    10  C    0.891995  -2.170668   0.214438  10.894243  -1.087333   0.337948
    11  C    0.107219   0.826895  -0.930001  -1.087333  14.456547   0.071629
    12  C   -0.836937  -0.382880   0.945281   0.337948   0.071629   8.419432
    13  C   -2.231059  -4.605777  -3.524004   1.320471  -0.893731   0.346202
    14  C   -2.307380  -3.474194   1.365337   1.432716   0.253375   0.339752
    15  C   -1.049475  -1.243466   0.889115  -0.731317  -1.507925  -0.872007
    16  C    0.486100  -0.433000  -2.956129   1.613282  -0.136843  -0.227242
    17  C   -1.283676   0.595606   0.331738  -0.014446  -0.561167   0.196386
    18  C    2.697584   0.373934  -0.273572  -5.465312   0.098575  -1.109216
    19  C   -0.040625   0.182872  -0.119891  -0.047546  -0.426292   0.009238
    20  C   -0.203815   0.601501   0.515812   0.672634  -0.003962   2.054700
    21  C    0.058537  -0.600989  -0.189168  -0.275097  -0.022116  -1.755120
    22  C   -0.034014  -0.124674  -0.084419  -0.280463  -0.001338   0.691231
    23  C    0.056407  -0.173636  -0.141378  -0.477023  -0.015739  -2.188152
    24  C    0.015227   0.359156   0.127217   0.839992   0.015006   1.002864
    25  C   -0.001581  -0.001884  -0.028099  -0.046311  -0.000064   0.008064
    26  H   -0.062654  -0.009236  -0.073561  -0.043163   0.411747  -0.024420
    27  H   -0.001811   0.146231   0.038036  -0.000349   0.694105   0.016205
    28  H    0.080111  -0.061028  -0.173220   0.111718  -0.055363   0.427901
    29  H   -0.149281  -0.181575  -0.007643   0.060611   0.059181   0.028871
    30  H   -0.034171  -0.082738   0.012453   0.026612  -0.004743   0.114848
    31  H    0.040116  -0.174972  -0.005566   0.014604  -0.077579  -0.041533
    32  H   -0.023878   0.032934  -0.065250  -0.035713   0.019606   0.008131
    33  H   -0.067605   0.043089   0.124682  -0.011835   0.027364   0.062031
    34  H    0.062416  -0.011822  -0.013287  -0.061476   0.003911  -0.021006
    35  H   -0.007871  -0.005501   0.024221  -0.021269   0.002218   0.000102
    36  H   -0.012979  -0.014265   0.042238  -0.033286  -0.000001  -0.008758
    37  H    0.001824   0.002958  -0.006943   0.007429  -0.000057  -0.022807
    38  H    0.000857   0.002926  -0.004483   0.000141   0.000066  -0.008680
    39  H   -0.004451  -0.004311  -0.002814  -0.001231  -0.037518   0.000050
    40  H    0.001621   0.000584   0.005843   0.003828  -0.000132  -0.001382
    41  H   -0.000111  -0.000094  -0.000415  -0.001573  -0.000000   0.000305
    42  H   -0.001663   0.000232  -0.000117   0.013776  -0.000031   0.000068
              13         14         15         16         17         18
     1  S    0.002652  -0.047227  -0.001456   0.035553   0.012193   0.013402
     2  F   -0.269567  -0.096791   0.000413  -0.000068   0.521122  -0.203390
     3  O   -0.017876   0.000801  -0.029348  -0.000091   0.002262   0.001079
     4  O   -0.034862   0.011203  -0.029727   0.000845  -0.000926   0.001969
     5  O    0.000005   0.001690  -0.000003  -0.057999   0.000035   0.000300
     6  C   -0.971777  -3.270869   0.584528  -0.416411   0.875232   0.132420
     7  C   -2.231059  -2.307380  -1.049475   0.486100  -1.283676   2.697584
     8  C   -4.605777  -3.474194  -1.243466  -0.433000   0.595606   0.373934
     9  C   -3.524004   1.365337   0.889115  -2.956129   0.331738  -0.273572
    10  C    1.320471   1.432716  -0.731317   1.613282  -0.014446  -5.465312
    11  C   -0.893731   0.253375  -1.507925  -0.136843  -0.561167   0.098575
    12  C    0.346202   0.339752  -0.872007  -0.227242   0.196386  -1.109216
    13  C   19.041712   2.850166  -0.348190   0.936679  -1.167228  -4.668282
    14  C    2.850166  14.319122   0.191864  -0.372545  -1.403401  -3.590652
    15  C   -0.348190   0.191864   9.560214  -0.456406   0.071413   0.273360
    16  C    0.936679  -0.372545  -0.456406  18.431667  -0.114778  -1.589824
    17  C   -1.167228  -1.403401   0.071413  -0.114778   9.052629  -0.349764
    18  C   -4.668282  -3.590652   0.273360  -1.589824  -0.349764  19.185719
    19  C    0.050189  -0.015766   0.007559  -0.016280   0.091330   0.051154
    20  C    0.223453  -0.508859   0.063601  -4.093770  -0.008482  -0.396849
    21  C   -0.294056   0.441299  -0.106906  -1.085758  -0.007784  -0.018634
    22  C    0.012113   0.337129   0.009147  -4.299961   0.013804   0.190509
    23  C   -0.220037   0.302554   0.004943   0.263342   0.041239   0.090604
    24  C    0.189368  -0.674344  -0.024718  -0.366829  -0.062279  -0.253692
    25  C    0.003773   0.015066   0.000222  -0.081534  -0.010437   0.074079
    26  H   -0.004014  -0.045220   0.038050  -0.007858   0.040672   0.063357
    27  H   -0.040864   0.008078  -0.088533   0.004690  -0.023615  -0.015655
    28  H    0.056690  -0.030343   0.032007   0.091615  -0.001964  -0.055923
    29  H    0.994484   0.169024  -0.038297   0.019994  -0.224530  -0.316422
    30  H    0.091891   0.485887  -0.008941   0.233351   0.076025  -0.218063
    31  H    0.009486   0.002427   0.432534  -0.004405   0.004046   0.007013
    32  H   -0.002163  -0.008761   0.394765  -0.009412   0.000372   0.002470
    33  H   -0.025253   0.007867   0.325566  -0.011937  -0.000288   0.001354
    34  H   -0.118009  -0.097277  -0.000779  -0.022586  -0.207190   0.789245
    35  H   -0.003731   0.011222   0.000672  -0.070828   0.002468   0.008855
    36  H   -0.013459   0.014813  -0.000083  -0.091927   0.006518   0.003157
    37  H    0.000578  -0.003674  -0.000713  -0.003489  -0.001294  -0.003042
    38  H    0.001125   0.002359   0.000139  -0.031183  -0.002737   0.005948
    39  H    0.004871   0.000179  -0.000355  -0.000024   0.000846   0.000225
    40  H   -0.003913   0.003508   0.000156   0.024195   0.003381  -0.014391
    41  H   -0.000042   0.001057   0.000004   0.000579  -0.000404   0.001650
    42  H    0.001579   0.002065  -0.000059   0.001288   0.003605  -0.022815
              19         20         21         22         23         24
     1  S    0.000007  -0.515143   0.307131  -2.008750   1.362336  -0.033229
     2  F    0.000588  -0.000181  -0.000177   0.000080  -0.000140  -0.000122
     3  O    0.377418   0.000005  -0.000004   0.000000  -0.000001  -0.000000
     4  O    0.592361  -0.000403   0.000547  -0.000020   0.000065  -0.000041
     5  O   -0.000000  -0.061199   0.082176   0.611905   0.653681  -1.199151
     6  C   -0.305336   0.255294  -0.296736  -0.053888  -0.128015   0.225506
     7  C   -0.040625  -0.203815   0.058537  -0.034014   0.056407   0.015227
     8  C    0.182872   0.601501  -0.600989  -0.124674  -0.173636   0.359156
     9  C   -0.119891   0.515812  -0.189168  -0.084419  -0.141378   0.127217
    10  C   -0.047546   0.672634  -0.275097  -0.280463  -0.477023   0.839992
    11  C   -0.426292  -0.003962  -0.022116  -0.001338  -0.015739   0.015006
    12  C    0.009238   2.054700  -1.755120   0.691231  -2.188152   1.002864
    13  C    0.050189   0.223453  -0.294056   0.012113  -0.220037   0.189368
    14  C   -0.015766  -0.508859   0.441299   0.337129   0.302554  -0.674344
    15  C    0.007559   0.063601  -0.106906   0.009147   0.004943  -0.024718
    16  C   -0.016280  -4.093770  -1.085758  -4.299961   0.263342  -0.366829
    17  C    0.091330  -0.008482  -0.007784   0.013804   0.041239  -0.062279
    18  C    0.051154  -0.396849  -0.018634   0.190509   0.090604  -0.253692
    19  C    5.941348   0.004158  -0.004594   0.000314  -0.001143   0.001186
    20  C    0.004158  28.491624 -18.771729  -0.674372 -17.937402  16.544537
    21  C   -0.004594 -18.771729  28.246087   0.415206  16.439156 -16.203943
    22  C    0.000314  -0.674372   0.415206  29.551436  -8.635503  -8.689916
    23  C   -0.001143 -17.937402  16.439156  -8.635503  55.743184 -39.223888
    24  C    0.001186  16.544537 -16.203943  -8.689916 -39.223888  53.198077
    25  C   -0.000009   0.218939  -0.041755  -0.697312   0.819963  -0.537467
    26  H   -0.068866   0.000137  -0.000308  -0.000131  -0.000081   0.000261
    27  H   -0.103212  -0.003996   0.005016  -0.000002   0.000180  -0.000114
    28  H   -0.001044   0.038853  -0.114785   0.024601  -0.078454   0.022924
    29  H   -0.013215   0.003084  -0.004015   0.000355  -0.002932   0.002593
    30  H    0.000462  -0.287602  -0.101725   0.320701  -0.057844  -0.283304
    31  H    0.014073   0.009340  -0.010966   0.000248  -0.001782   0.001570
    32  H   -0.008952   0.016494  -0.021413  -0.000584  -0.000870  -0.000609
    33  H    0.001256  -0.026538   0.030293  -0.001608   0.006522  -0.003600
    34  H    0.000180  -0.003377   0.013958  -0.009722   0.020662  -0.011612
    35  H   -0.000283   0.423745  -0.012603   0.000849  -0.112811   0.064537
    36  H    0.000191  -0.117215   0.629982   0.076949   0.203894  -0.370196
    37  H   -0.000024  -0.020250   0.037268  -0.218594   0.604840  -0.081243
    38  H   -0.000016   0.064479  -0.114675  -0.133041  -0.108971   0.619609
    39  H    0.047883  -0.000019   0.000007   0.000002  -0.000009   0.000004
    40  H    0.000005  -0.109377   0.043380   0.126404   0.063764  -0.104144
    41  H    0.000000   0.002104  -0.007525   0.046197  -0.025069   0.019166
    42  H    0.000001   0.027259  -0.013500   0.025356   0.003190   0.007393
              25         26         27         28         29         30
     1  S   -0.317760  -0.000004   0.000003  -0.005331   0.000099   0.032357
     2  F    0.000010   0.002298  -0.000001  -0.000022  -0.035589   0.002922
     3  O    0.000000  -0.000128  -0.001951   0.000002  -0.002292  -0.000002
     4  O    0.000001  -0.003010   0.001084   0.000125  -0.001181  -0.000395
     5  O   -0.118127  -0.000000   0.000000   0.000026   0.000000   0.000393
     6  C   -0.004110   0.103133  -0.323666  -0.080493  -0.110213  -0.051865
     7  C   -0.001581  -0.062654  -0.001811   0.080111  -0.149281  -0.034171
     8  C   -0.001884  -0.009236   0.146231  -0.061028  -0.181575  -0.082738
     9  C   -0.028099  -0.073561   0.038036  -0.173220  -0.007643   0.012453
    10  C   -0.046311  -0.043163  -0.000349   0.111718   0.060611   0.026612
    11  C   -0.000064   0.411747   0.694105  -0.055363   0.059181  -0.004743
    12  C    0.008064  -0.024420   0.016205   0.427901   0.028871   0.114848
    13  C    0.003773  -0.004014  -0.040864   0.056690   0.994484   0.091891
    14  C    0.015066  -0.045220   0.008078  -0.030343   0.169024   0.485887
    15  C    0.000222   0.038050  -0.088533   0.032007  -0.038297  -0.008941
    16  C   -0.081534  -0.007858   0.004690   0.091615   0.019994   0.233351
    17  C   -0.010437   0.040672  -0.023615  -0.001964  -0.224530   0.076025
    18  C    0.074079   0.063357  -0.015655  -0.055923  -0.316422  -0.218063
    19  C   -0.000009  -0.068866  -0.103212  -0.001044  -0.013215   0.000462
    20  C    0.218939   0.000137  -0.003996   0.038853   0.003084  -0.287602
    21  C   -0.041755  -0.000308   0.005016  -0.114785  -0.004015  -0.101725
    22  C   -0.697312  -0.000131  -0.000002   0.024601   0.000355   0.320701
    23  C    0.819963  -0.000081   0.000180  -0.078454  -0.002932  -0.057844
    24  C   -0.537467   0.000261  -0.000114   0.022924   0.002593  -0.283304
    25  C    6.650840   0.000001   0.000001   0.001194  -0.000019  -0.034563
    26  H    0.000001   0.517859  -0.026519  -0.000633  -0.028794  -0.001462
    27  H    0.000001  -0.026519   0.487907  -0.000287   0.008195   0.000093
    28  H    0.001194  -0.000633  -0.000287   0.530791   0.000825   0.003335
    29  H   -0.000019  -0.028794   0.008195   0.000825   0.577984   0.006526
    30  H   -0.034563  -0.001462   0.000093   0.003335   0.006526   0.722278
    31  H    0.000010   0.004345  -0.011122   0.004910  -0.001553  -0.000443
    32  H   -0.000021   0.002610  -0.002532  -0.007724  -0.000351   0.000906
    33  H   -0.000031  -0.001374   0.000241  -0.011302   0.000041   0.000420
    34  H    0.011111   0.000972  -0.000081  -0.000385  -0.008861  -0.041449
    35  H    0.000825   0.000032   0.000007  -0.002212  -0.000022  -0.004177
    36  H   -0.001507  -0.000118   0.000080  -0.004436  -0.000051  -0.002753
    37  H    0.005638   0.000001   0.000007  -0.001052   0.000007  -0.009763
    38  H    0.008225   0.000005   0.000008  -0.000302  -0.000008  -0.008910
    39  H    0.000000   0.001182   0.000540  -0.000001  -0.000048  -0.000002
    40  H    0.169242  -0.000001  -0.000001   0.000001  -0.000045   0.006935
    41  H    0.399671  -0.000000  -0.000000  -0.000014  -0.000001   0.000224
    42  H    0.315924  -0.000002  -0.000001   0.000142   0.000056  -0.003022
[...]
 .00006606,0.00019302,-0.00000240,-0.00003465,0.00000577,0.00005904,-0.
 00001418,-0.00001459,0.00000145,-0.00000195,-0.00000041,-0.00182563,0.
 00212428,0.00346736,0.00002803,0.00002503,0.00000050,-0.00001637,0.000
 01268,-0.00002064,-0.00000351,0.00000106,0.00000507,-0.00054427,-0.000
 81492,-0.00014506,-0.00167338,-0.00074641,0.00463774,0.00763774,0.0126
 8433,-0.01331159,-0.00384591,0.00322831,-0.00032335,0.07570413,0.12437
 622,-0.20418361,-0.00067620,-0.00014436,-0.00007216,0.00000120,-0.0000
 0005,0.00000004,0.00000012,0.00000038,-0.00000010,0.00002266,-0.000047
 73,-0.00005734,0.00000021,-0.00000027,0.00000116,-0.00000847,0.0000086
 7,0.00002424,0.00000084,0.00000113,0.,0.00000106,0.00000041,0.00000013
 ,-0.00000167,0.00000008,-0.00000110,0.00000055,-0.00000221,-0.00000353
 ,0.00016617,-0.00030350,-0.00025931,0.00070822,-0.00214420,-0.00072779
 ,0.00051075,0.00068982,-0.00041598,-0.08030017,-0.13826101,0.21284462,
 0.00000730,0.00000384,-0.00000630,0.00000247,-0.00000113,-0.00000031,-
 0.14717266,0.04004904,0.15723403,0.01009469,-0.00044055,0.00017328,-0.
 00000206,-0.00000316,0.00000407,-0.00032855,0.00076222,0.00132637,-0.0
 0002197,0.00005871,0.00000292,-0.00018110,-0.00024560,-0.00002756,-0.0
 0001701,0.00007807,-0.00018259,-0.00007322,-0.00004081,-0.00002757,-0.
 00513861,-0.00115891,-0.00408419,-0.00001478,-0.00003757,-0.00000026,0
 .00000399,0.00000998,-0.00000066,0.00001232,0.00004713,-0.00001073,-0.
 00003001,-0.00000458,0.00005525,0.00000486,0.00001323,0.00002907,-0.00
 001971,-0.00003662,-0.00001062,0.00002917,-0.00002184,0.00000635,-0.03
 814365,0.01172170,0.04442721,-0.00000363,-0.00000891,0.00000093,-0.000
 01189,0.00000226,-0.00000356,-0.00000871,0.00000054,0.00000324,-0.0000
 0172,0.00000149,0.00000283,-0.00000102,-0.00000694,-0.00000404,-0.0000
 0327,-0.00000047,0.00000171,0.00048300,-0.00027980,-0.00016403,0.00033
 279,0.00026899,-0.00012177,0.00000124,-0.00000176,-0.00001420,-0.00000
 483,-0.00002667,0.00002746,-0.00000293,0.00000150,0.00000373,0.0000115
 3,0.00002241,0.00000526,0.00000754,0.00002139,0.00000192,0.00000402,0.
 00001281,-0.00000312,0.00000213,-0.00000128,0.00000321,0.00000118,0.00
 000054,-0.00000009,-0.00000028,0.00000292,0.00000066,-0.00000158,-0.00
 000002,-0.00000060,-0.00000137,-0.00000052,0.,0.18018596,-0.00000033,-
 0.00000012,0.00000086,0.00000348,-0.00000486,-0.00000152,0.05031743,-0
 .03507166,-0.08465858,-0.00118094,-0.00495272,0.00006498,-0.00000020,-
 0.00000014,-0.00000039,-0.00011540,0.00077665,-0.00042642,0.00014698,-
 0.00003955,0.00005196,-0.00012866,-0.00000205,-0.00000257,0.00000971,0
 .00001280,-0.00001501,0.00002096,0.00003633,0.00002332,0.00040878,0.00
 374050,0.00024046,-0.00001270,0.00000096,0.00000181,-0.00001645,-0.000
 00809,-0.00001474,0.00001122,-0.00001319,0.00000389,-0.00000354,-0.000
 02836,-0.00000064,-0.00000097,0.00000151,0.00000427,0.00000227,0.00001
 077,-0.00000120,-0.00000572,-0.00000156,0.00000297,0.00205828,0.003001
 84,0.00078539,0.00000119,-0.00000129,-0.00000290,-0.00000008,-0.000001
 41,-0.00000107,0.00000131,-0.00000024,-0.00000124,-0.00000077,0.000001
 18,0.00000102,0.00000086,0.00000093,0.00000139,0.00000032,0.,-0.000000
 10,-0.00025661,-0.00004080,-0.00078794,-0.00050775,0.00044748,0.000756
 82,0.00000088,-0.00000261,-0.00000309,-0.00000054,0.00000931,0.0000069
 6,0.00000381,0.00000275,-0.00000237,0.00000720,-0.00001330,0.00000509,
 -0.00001216,-0.00000471,0.00000078,0.00000855,0.00000451,0.00000151,-0
 .00000008,0.00000033,0.00000056,-0.00000003,0.00000022,0.00000036,0.00
 000018,0.00000022,0.00000035,0.00000020,0.00000015,0.00000013,0.000000
 05,-0.00000004,0.00000007,-0.05076061,0.03213809,0.00000781,0.00000335
 ,-0.00000645,0.00000488,-0.00001683,0.00000180,0.20292424,-0.08595273,
 -0.36252307,-0.00266254,0.00023925,-0.00457486,-0.00000227,-0.00000315
 ,0.00000414,-0.00019942,-0.00026460,0.00042710,-0.00002179,0.00000751,
 -0.00002489,0.00005377,0.00000934,-0.00000931,0.00003324,0.00002972,-0
 .00002881,-0.00001302,-0.00004321,-0.00002049,-0.00149541,0.00002886,0
 .00197309,-0.00000072,-0.00000553,0.00000219,0.00001816,0.00000454,0.0
 0000275,-0.00000001,0.00002587,0.00000065,-0.00000263,0.00000579,0.000
 00561,0.00001239,0.00000358,0.00000426,-0.00001555,0.00001640,0.000001
 61,0.00001126,-0.00001682,0.00000017,0.00076321,0.00215271,0.01257081,
 -0.00000716,-0.00000609,0.00000317,-0.00000996,0.00000261,-0.00000090,
 -0.00000882,0.00000089,0.00000293,-0.00000076,0.00000219,0.00000156,-0
 .00000018,-0.00000532,-0.00000343,-0.00000336,-0.00000046,0.00000159,-
 0.00041496,0.00001561,0.00032272,-0.00031277,-0.00021975,-0.00018249,0
 .00000028,-0.00000019,-0.00000145,0.00000100,0.00001000,-0.00000859,-0
 .00000311,0.00000031,0.00000285,-0.00000233,-0.00000803,0.00000018,0.0
 0000030,0.00001248,0.00000171,-0.00000578,0.00000819,-0.00000820,-0.00
 000105,-0.00000123,0.00000070,0.00000138,-0.00000037,-0.00000031,0.000
 00043,0.00000149,-0.00000031,-0.00000164,-0.00000011,-0.00000060,-0.00
 000100,-0.00000025,0.00000018,-0.19864656,0.08396483,0.35206306,-0.001
 94622,0.00099381,-0.00209417,0.00000663,-0.00001734,0.00000308,0.00000
 721,-0.00000086,-0.00000254,0.00000367,-0.00000070,-0.00000363,0.00107
 055,-0.00052058,-0.00057361,0.00000763,-0.00001893,0.00001230,0.000013
 59,0.00002596,-0.00000295,-0.00002471,-0.00001272,0.00000036,0.0000288
 5,0.00000042,-0.00001205,-0.00000665,0.00002534,-0.00000685,-0.0000027
 0,-0.00000301,-0.00000383,-0.00003792,-0.00000751,0.00001405,-0.000002
 14,-0.00002021,0.00000286,-0.00000555,-0.00001484,0.00000145,0.0000046
 7,0.00000045,0.00000023,0.00004958,0.00000605,0.00002275,0.00000764,0.
 00001866,-0.00000032,-0.00000257,0.00000455,-0.00000261,-0.00000674,0.
 00000230,0.00000701,-0.00004294,-0.00007948,0.00004612,0.00004120,-0.0
 0004209,-0.00001055,-0.00020934,-0.00026217,0.00003959,-0.00046531,-0.
 00014886,-0.00013666,0.00008369,-0.00000290,-0.00001782,-0.06578326,-0
 .03159452,0.06834587,0.00000246,-0.00000043,0.00000017,0.00000147,0.00
 000096,0.00000005,0.00000798,0.00000469,-0.00000851,0.00000128,-0.0000
 0052,-0.00000047,-0.00000087,0.00000793,0.00000400,0.00000225,0.000001
 15,-0.00000048,-0.00000040,0.00000037,-0.00000110,-0.00000042,0.000000
 52,0.00000030,-0.00000067,-0.00000087,-0.00000078,0.00000113,0.0000156
 8,0.00000108,0.00001367,0.00000687,0.00000719,-0.00028606,-0.00045666,
 -0.00014309,0.00001630,0.00001936,0.00000784,0.00000014,-0.00000005,0.
 00000023,0.06724047,0.00555313,0.01064206,-0.01352387,0.00000625,-0.00
 001810,0.00000345,0.00000626,-0.00000128,-0.00000334,0.00000310,-0.000
 00113,-0.00000525,0.00074830,-0.00351017,-0.00731846,0.00000728,-0.000
 02265,0.00000862,0.00001421,0.00003044,-0.00000137,-0.00002825,-0.0000
 1280,0.00000263,0.00002877,0.00000862,-0.00000599,-0.00000937,0.000026
 83,-0.00000149,-0.00000206,-0.00000417,-0.00000488,-0.00003599,-0.0000
 1399,0.00001915,-0.00000424,-0.00002563,0.00000056,0.00000009,-0.00002
 037,-0.00000432,0.00000450,0.00000120,0.00000149,0.00009237,-0.0000931
 8,0.00016064,0.00001219,0.00002096,0.00000101,-0.00000576,0.00000521,-
 0.00000478,-0.00000511,0.00000329,0.00000952,-0.00021208,-0.00015954,0
 .00012988,0.00022173,0.00004080,-0.00013388,0.00027716,0.00014362,0.00
 074734,-0.00063596,-0.00007873,-0.00037139,-0.00024814,-0.00002930,-0.
 00007039,-0.03145257,-0.09159532,0.09885647,0.00000257,0.00000004,0.00
 000015,0.00000136,0.00000100,0.00000022,0.00000925,0.00000753,-0.00000
 662,0.00000110,-0.00000047,0.00000055,-0.00000044,0.00000607,0.0000098
 5,0.00000194,0.00000119,-0.00000033,0.00000005,0.00000050,-0.00000143,
 -0.00000085,-0.00000002,0.00000054,-0.00000043,-0.00000161,-0.00000087
 ,-0.00003104,0.00001713,0.00000061,-0.00000699,-0.00000436,-0.00000177
 ,-0.00043713,-0.00044631,-0.00014546,0.00009572,0.00002873,0.00003774,
 0.00000036,0.00000004,0.00000034,0.03558705,0.09520349,0.00309917,0.00
 836769,-0.01326373,0.00000807,-0.00002085,0.00000440,0.00000790,-0.000
 00118,-0.00000313,0.00000361,-0.00000076,-0.00000433,0.00140028,-0.003
 30020,-0.00529033,0.00000815,-0.00002226,0.00000872,0.00001231,0.00003
 098,-0.00000076,-0.00002888,-0.00001364,0.00000646,0.00003074,0.000014
 16,-0.00000398,-0.00000788,0.00002462,-0.00000653,-0.00000241,-0.00000
 359,-0.00000509,-0.00003218,-0.00003583,0.00000175,-0.00000329,-0.0000
 2571,0.00000048,-0.00000527,-0.00002300,0.00000050,0.00000455,0.000000
 87,0.00000103,0.00009916,-0.00022137,0.00029658,0.00001132,0.00002238,
 0.00000176,-0.00000135,0.00000720,-0.00000638,-0.00000712,0.00000279,0
 .00000840,-0.00045649,0.00001276,0.00017382,0.00041525,0.00012005,-0.0
 0019025,0.00043429,0.00003506,0.00080068,-0.00004609,0.00025332,-0.000
 11796,-0.00055709,0.00015516,-0.00016896,0.06794913,0.10165380,-0.2536
 9651,0.00000277,-0.00000031,0.00000021,0.00000152,0.00000118,0.0000000
 5,0.00000940,0.00000757,-0.00000587,0.00000142,-0.00000061,0.00000015,
 0.00000341,0.00000915,0.00000845,0.00000242,0.00000155,-0.00000039,-0.
 00000024,0.00000068,-0.00000139,-0.00000099,0.00000049,0.00000061,-0.0
 0000032,-0.00000177,-0.00000128,-0.00001660,0.00000181,-0.00001211,-0.
 00000338,-0.00001642,-0.00000963,-0.00002071,-0.00037756,0.00001378,0.
 00009657,0.00002513,0.00005663,0.00000023,-0.00000003,0.00000028,-0.07
 337476,-0.10674148,0.27133015,0.00188227,0.00077747,0.00055677,-0.0000
 0535,0.00001429,-0.00000288,-0.00000598,0.00000087,0.00000222,-0.00000
 313,0.00000085,0.00000347,0.00048407,0.00073923,-0.00114018,-0.0000049
 2,0.00001467,-0.00000467,-0.00001118,-0.00002371,0.00000022,0.00001648
 ,0.00000915,-0.00000491,-0.00000442,-0.00001262,0.00001109,0.00000590,
 -0.00001841,0.00000079,0.00000182,0.00000256,0.00000356,-0.00002677,0.
 00001712,0.00000336,0.00000274,0.00001819,-0.00000023,0.00000371,0.000
 01047,0.00000048,-0.00000290,-0.00000014,0.00000098,0.00003936,0.00003
 692,-0.00002034,-0.00000665,-0.00001608,-0.00000051,0.00000204,-0.0000
 0278,0.00000239,0.00000555,-0.00000217,-0.00000627,-0.00007838,0.00000
 455,-0.00007123,-0.00007162,-0.00022117,0.00009718,-0.00024089,-0.0004
 0610,0.00102604,0.00021755,0.00016124,-0.00025209,0.00078003,0.0000039
 4,0.00013193,-0.29153091,-0.08699569,-0.01492185,-0.00000210,-0.000000
 11,-0.00000024,-0.00000126,-0.00000064,-0.00000011,-0.00000428,-0.0000
 0267,-0.00000751,-0.00000100,0.00000042,0.00000026,-0.00000166,-0.0000
 0274,-0.00000388,-0.00000151,-0.00000107,-0.00000018,-0.00000024,-0.00
 000048,0.00000033,0.00000018,-0.00000052,-0.00000016,0.00000046,0.0000
 0111,0.00000045,-0.00000208,0.00000553,0.00000673,0.00002573,0.0000159
 1,-0.00000021,-0.00001349,0.00003705,0.00000417,-0.00000575,0.00006572
 ,0.00001716,-0.00000009,-0.00000002,-0.00000016,-0.00614244,-0.0015769
 3,-0.00132317,0.30931165,-0.01839915,-0.00893127,-0.00108473,-0.000028
 18,0.00007851,-0.00001445,-0.00002862,0.00000490,0.00001351,-0.0000141
 9,0.00000415,0.00002060,0.00113461,0.00134417,0.00097950,-0.00003147,0
 .00009982,-0.00002989,-0.00006028,-0.00013263,0.00000724,0.00012238,0.
 00004869,-0.00001986,-0.00011659,-0.00002927,-0.00000231,0.00003841,-0
 .00011438,0.00000683,0.00001070,0.00001501,0.00001943,0.00017569,0.000
 02346,0.00002322,0.00001730,0.00010506,-0.00000853,0.00000624,0.000073
 80,0.00000697,-0.00001397,-0.00000233,-0.00000584,-0.00017375,0.000063
 69,-0.00031402,-0.00005233,-0.00008873,0.00000154,0.00002441,-0.000024
 42,0.00001483,0.00002481,-0.00001287,-0.00003763,0.00018346,0.00018701
 ,0.00016824,-0.00047900,0.00025431,0.00026630,0.00044729,-0.00247991,-
 0.00351330,-0.00046582,0.00006318,-0.00026174,-0.00019230,-0.00073545,
 0.00029938,-0.08845767,-0.07647612,-0.00384762,-0.00001111,0.00000034,
 -0.00000081,-0.00000638,-0.00000412,-0.00000014,-0.00004708,-0.0000227
 5,0.00002641,-0.00000506,0.00000256,-0.00000060,0.00000364,-0.00002635
 ,-0.00001184,-0.00000865,-0.00000611,0.00000100,-0.00000082,-0.0000031
 9,0.00000454,0.00000367,-0.00000360,-0.00000096,0.00000201,0.00000588,
 0.00000092,-0.00004816,-0.00004737,0.00001503,-0.00010790,0.00003004,0
 .00003074,0.00007104,-0.00000373,0.00003810,0.00004486,-0.00017569,-0.
 00011436,-0.00000129,0.00000013,-0.00000125,-0.00967755,-0.00385950,-0
 .00139581,0.09498761,0.08059721,-0.01791666,-0.00871445,-0.00420630,-0
 .00002413,0.00006870,-0.00001212,-0.00002554,0.00000445,0.00001198,-0.
 00001288,0.00000384,0.00001801,0.00078738,0.00126182,0.00126940,-0.000
 02739,0.00008962,-0.00002421,-0.00005820,-0.00011866,0.00000706,0.0001
 0833,0.00004498,-0.00000999,-0.00009398,-0.00002097,-0.00001325,0.0000
 3770,-0.00010473,-0.00000129,0.00001021,0.00001371,0.00001651,0.000152
 93,-0.00001301,0.00001005,0.00001664,0.00009128,-0.00000664,0.00000760
 ,0.00005712,0.00000901,-0.00001202,-0.00000171,-0.00000493,-0.00009915
 ,-0.00017291,0.00007898,-0.00004525,-0.00007850,0.00000160,0.00002360,
 -0.00001952,0.00001069,0.00002203,-0.00001171,-0.00003314,-0.00034775,
 0.00024141,0.00013241,0.00000074,0.00041344,0.00020167,0.00049807,-0.0
 0353255,-0.00268344,-0.00017773,0.00022461,-0.00018266,-0.00046196,-0.
 00041084,0.00018567,-0.01689752,-0.00245971,-0.04449506,-0.00000985,0.
 00000021,-0.00000066,-0.00000553,-0.00000349,-0.00000017,-0.00004256,-
 0.00001597,0.00002387,-0.00000454,0.00000224,-0.00000041,0.00000711,-0
 .00002097,-0.00001214,-0.00000765,-0.00000518,0.00000061,-0.00000036,-
 0.00000241,0.00000379,0.00000272,-0.00000333,-0.00000085,0.00000166,0.
 00000516,0.00000083,-0.00005552,-0.00001751,0.00002541,-0.00006993,-0.
 00001471,-0.00001384,0.00002419,-0.00033864,-0.00006465,0.00001553,-0.
 00015614,-0.00012544,-0.00000110,0.00000002,-0.00000108,0.02583172,0.0
 0964344,0.00451581,0.01619866,0.00746362,0.04605522,0.00131474,-0.0027
 3317,-0.00098512,0.00000920,-0.00002518,0.00000469,0.00001009,-0.00000
 161,-0.00000421,0.00000494,-0.00000111,-0.00000593,-0.00060763,-0.0000
 8376,0.00100036,0.00001175,-0.00003246,0.00000619,0.00002184,0.0000409
 0,-0.00000157,-0.00003766,-0.00001543,0.00000958,0.00004350,0.00000518
 ,0.00000882,-0.00001375,0.00004360,-0.00000006,-0.00000403,-0.00000455
 ,-0.00000555,-0.00005201,-0.00002586,-0.00003231,-0.00000365,-0.000029
 45,0.00000043,-0.00000738,-0.00001974,-0.00000151,0.00000312,0.0000001
 9,0.00000126,0.00004573,0.00004848,-0.00006853,0.00001236,0.00002676,-
 0.00000065,-0.00000484,0.00000621,-0.00000049,-0.00000889,0.00000401,0
 .00001110,0.00003898,0.00002948,0.00005768,-0.00009100,0.00000254,0.00
 012429,0.00100558,-0.00079755,0.00071614,-0.00002214,-0.00013965,0.000
 14140,0.00035523,0.00027960,-0.00016466,-0.15825425,0.12610442,-0.0516
 9956,0.00000379,-0.00000015,0.00000027,0.00000224,0.00000135,-0.000000
 03,0.00001387,0.00000376,-0.00000459,0.00000146,-0.00000072,0.00000017
 ,-0.00000378,0.00000844,-0.00000029,0.00000271,0.00000215,-0.00000011,
 0.00000075,0.00000132,-0.00000133,-0.00000095,0.00000163,0.00000033,-0
 .00000169,-0.00000138,-0.00000093,0.00000882,0.00002473,0.00000801,0.0
 0004327,-0.00001035,-0.00000875,-0.00000115,0.00000040,-0.00006566,0.0
 0001123,-0.00004475,-0.00004267,0.00000032,-0.00000007,0.00000039,0.00
 635483,-0.00798140,0.00228655,-0.01461055,0.02112923,-0.00734964,0.164
 40499,0.01022995,-0.02332225,-0.00025249,0.00000128,-0.00000209,0.0000
 0042,0.00000094,-0.00000011,0.00000020,0.00000044,0.00000019,0.0000007
 3,-0.00137348,0.00508050,0.00049362,-0.00000078,0.00000354,0.00000172,
 -0.00000146,0.00000066,-0.00000312,0.00000236,-0.00000215,-0.00000528,
 -0.00001409,0.00000481,0.00000049,0.00000181,-0.00000429,0.00000507,0.
 ,0.00000046,0.00000086,0.00000726,0.00001759,0.00000748,-0.00000139,0.
 00000070,-0.00000049,-0.00000602,-0.00000055,-0.00000525,0.00000077,-0
 .00000067,-0.00000120,-0.00008399,0.00010881,-0.00019885,0.00000062,0.
 00000120,-0.00000097,0.00000119,0.00000204,0.00000557,-0.00000144,-0.0
 0000045,-0.00000082,0.00035955,-0.00017012,-0.00001261,-0.00021907,-0.
 00018679,-0.00004037,0.00103539,0.00200844,0.00079220,-0.00051425,-0.0
 0008003,0.00034748,-0.00027001,0.00006533,-0.00007011,0.12809827,-0.18
 616914,0.06253858,0.00000028,-0.00000024,-0.00000007,0.00000021,0.,-0.
 00000013,0.00000119,0.00000056,0.00000127,0.00000012,0.00000006,0.0000
 0011,0.00000115,-0.00000060,-0.00000176,0.00000013,0.00000016,0.000000
 51,-0.00000012,0.00000013,0.00000088,0.00000040,0.00000066,-0.00000012
 ,-0.00000023,0.00000110,-0.00000058,-0.00000388,-0.00000374,-0.0000024
 2,-0.00001373,-0.00000092,0.00000457,0.00002495,0.00011119,0.00001726,
 0.00003197,0.00002063,-0.00001388,-0.00000008,0.00000002,0.00000005,0.
 00616068,-0.00629011,0.00145401,-0.00764082,0.01017787,-0.00339204,-0.
 13581605,0.19862756,0.01126059,-0.02493781,-0.00118857,0.00000137,-0.0
 0000335,0.00000044,0.00000088,-0.00000029,-0.00000094,0.00000061,-0.00
 000023,-0.00000142,-0.00136132,0.00448602,0.00262095,0.00000066,-0.000
 00088,0.00000148,0.00000365,0.00000490,-0.00000286,-0.00000514,-0.0000
 0457,-0.00000515,-0.00000246,0.00000509,0.00000894,-0.00000080,0.00000
 403,0.00000255,-0.00000033,-0.00000072,-0.00000011,-0.00000227,0.00000
 277,0.00000065,-0.00000226,-0.00000275,-0.00000044,0.00000070,-0.00000
 296,-0.00000714,0.00000092,-0.00000045,-0.00000190,-0.00003194,0.00012
 469,-0.00018260,0.00000381,0.00000271,-0.00000033,0.00000056,0.0000011
 7,0.00000330,-0.00000116,0.00000073,0.00000263,0.00028590,-0.00010922,
 0.00004541,-0.00020153,-0.00016113,-0.00000922,0.00165744,0.00177827,0
 .00071624,-0.00019114,0.00004833,0.00008039,-0.00000588,0.00018568,-0.
 00003191,-0.04918475,0.06027412,-0.06589731,0.00000046,0.,0.,0.0000001
 3,-0.00000010,-0.00000016,0.00000198,0.00000119,-0.00000123,0.00000033
 ,-0.00000021,0.00000014,0.00000004,-0.00000192,0.00000150,0.00000001,0
 .00000050,0.00000124,0.00000024,0.00000024,0.00000071,0.00000046,0.000
 00028,-0.00000010,0.00000008,-0.00000099,0.00000113,-0.00000101,0.0000
 0741,0.00000264,-0.00000411,-0.00000909,-0.00000096,-0.00000757,-0.000
 00514,0.00006076,-0.00002485,0.00001326,-0.00003409,0.00000012,0.00000
 002,0.00000009,-0.01795149,0.01871317,-0.00444210,-0.00030743,0.001257
 72,-0.00068631,0.05606652,-0.06167050,0.06894365\\0.00001251,0.0000027
 5,-0.00000602,0.00000153,0.00000017,0.00000274,0.00000037,-0.00000110,
 -0.00000100,-0.00000070,0.00000115,-0.00000128,-0.00000176,-0.00000364
 ,0.00000586,-0.00000145,0.00000089,0.00000437,0.00000668,0.00000087,-0
 .00000367,-0.00000688,-0.00000013,-0.00000343,0.00000990,0.00000138,0.
 00000161,-0.00000332,0.00000179,-0.00000325,0.00000321,-0.00000091,-0.
 00000108,0.00000043,0.00000021,-0.00000468,-0.00000206,0.00000174,0.00
 000212,-0.00000181,0.00000125,0.00000478,0.00000048,-0.00000264,-0.000
 00021,-0.00001359,0.00000069,-0.00000509,0.00000158,0.00000211,0.00000
 100,0.00000115,-0.00000061,0.00000080,-0.00000271,-0.00000060,0.000001
 19,0.00000978,0.00000011,0.00000242,-0.00000195,-0.00000299,0.00000331
 ,-0.00001193,-0.00000009,-0.00000056,-0.00000525,-0.00000423,-0.000000
 42,0.00000971,-0.00000078,0.00000298,-0.00000085,-0.00000006,-0.000001
 44,-0.00000056,0.00000392,0.00000147,-0.00000090,0.00000163,-0.0000027
 2,-0.00000078,-0.00000037,-0.00000014,0.00000097,0.00000093,-0.0000004
 1,0.00000193,-0.00000056,-0.00000006,-0.00000065,0.00000094,-0.0000062
 4,-0.00000028,0.00000139,0.00000014,-0.00000268,0.00000125,-0.00000047
 ,0.00000071,0.00000056,0.00000240,-0.00000015,-0.00000141,-0.00000061,
 0.00000118,0.00000166,-0.00000059,-0.00000082,-0.00000192,0.00000056,-
 0.00000256,0.00000008,-0.00000023,0.00000072,0.00000318,-0.00000185,0.
 00000063,-0.00000320,0.00000213,0.00000018,-0.00000284,0.00000327,-0.0
 0000001,-0.00000255,0.00000228\\\@
 The archive entry for this job was punched.


 REFRAIN FROM ILLUSIONS, INSIST ON WORK AND NOT WORDS,
 PATIENTLY SEEK DIVINE AND SCIENTIFIC TRUTH.
 LAST WORDS OF MARIA MENDELEEVA TO HER SON DMITRI, C. 1850
 Job cpu time:       1 days  1 hours 50 minutes 32.4 seconds.
 Elapsed time:       0 days  0 hours 14 minutes 37.5 seconds.
 File lengths (MBytes):  RWF=   1758 Int=      0 D2E=      0 Chk=     52 Scr=      1
 Normal termination of Gaussian 16 at Mon Mar  2 06:44:51 2026.
