SLURM_NODELIST orfoz181
NUMBER OF TASKS 1
NUMBER OF CORES=112
 Entering Gaussian System, Link 0=/arf/sw/apps/gaussian/avx/g16/g16
 Initial command:
 /arf/sw/apps/gaussian/avx/g16/l1.exe "/tmp/5366091/Gau-375123.inp" -scrdir="/tmp/5366091/"
 Entering Link 1 = /arf/sw/apps/gaussian/avx/g16/l1.exe PID=    375126.
  
 Copyright (c) 1988-2019, Gaussian, Inc.  All Rights Reserved.
  
 This is part of the Gaussian(R) 16 program.  It is based on
 the Gaussian(R) 09 system (copyright 2009, Gaussian, Inc.),
 the Gaussian(R) 03 system (copyright 2003, Gaussian, Inc.),
 the Gaussian(R) 98 system (copyright 1998, Gaussian, Inc.),
 the Gaussian(R) 94 system (copyright 1995, Gaussian, Inc.),
 the Gaussian 92(TM) system (copyright 1992, Gaussian, Inc.),
 the Gaussian 90(TM) system (copyright 1990, Gaussian, Inc.),
 the Gaussian 88(TM) system (copyright 1988, Gaussian, Inc.),
 the Gaussian 86(TM) system (copyright 1986, Carnegie Mellon
 University), and the Gaussian 82(TM) system (copyright 1983,
 Carnegie Mellon University). Gaussian is a federally registered
 trademark of Gaussian, Inc.
  
 This software contains proprietary and confidential information,
 including trade secrets, belonging to Gaussian, Inc.
  
 This software is provided under written license and may be
 used, copied, transmitted, or stored only in accord with that
 written license.
  
 The following legend is applicable only to US Government
 contracts under FAR:
  
                    RESTRICTED RIGHTS LEGEND
  
 Use, reproduction and disclosure by the US Government is
 subject to restrictions as set forth in subparagraphs (a)
 and (c) of the Commercial Computer Software - Restricted
 Rights clause in FAR 52.227-19.
  
 Gaussian, Inc.
 340 Quinnipiac St., Bldg. 40, Wallingford CT 06492
  
  
 ---------------------------------------------------------------
 Warning -- This program may not be used in any manner that
 competes with the business of Gaussian, Inc. or will provide
 assistance to any competitor of Gaussian, Inc.  The licensee
 of this program is prohibited from giving any competitor of
 Gaussian, Inc. access to this program.  By using this program,
 the user acknowledges that Gaussian, Inc. is engaged in the
 business of creating and licensing software in the field of
 computational chemistry and represents and warrants to the
 licensee that it is not a competitor of Gaussian, Inc. and that
 it will not use this program in any manner prohibited above.
 ---------------------------------------------------------------
  

 Cite this work as:
 Gaussian 16, Revision C.01,
 M. J. Frisch, G. W. Trucks, H. B. Schlegel, G. E. Scuseria, 
 M. A. Robb, J. R. Cheeseman, G. Scalmani, V. Barone, 
 G. A. Petersson, H. Nakatsuji, X. Li, M. Caricato, A. V. Marenich, 
 J. Bloino, B. G. Janesko, R. Gomperts, B. Mennucci, H. P. Hratchian, 
 J. V. Ortiz, A. F. Izmaylov, J. L. Sonnenberg, D. Williams-Young, 
 F. Ding, F. Lipparini, F. Egidi, J. Goings, B. Peng, A. Petrone, 
 T. Henderson, D. Ranasinghe, V. G. Zakrzewski, J. Gao, N. Rega, 
 G. Zheng, W. Liang, M. Hada, M. Ehara, K. Toyota, R. Fukuda, 
 J. Hasegawa, M. Ishida, T. Nakajima, Y. Honda, O. Kitao, H. Nakai, 
 T. Vreven, K. Throssell, J. A. Montgomery, Jr., J. E. Peralta, 
 F. Ogliaro, M. J. Bearpark, J. J. Heyd, E. N. Brothers, K. N. Kudin, 
 V. N. Staroverov, T. A. Keith, R. Kobayashi, J. Normand, 
 K. Raghavachari, A. P. Rendell, J. C. Burant, S. S. Iyengar, 
 J. Tomasi, M. Cossi, J. M. Millam, M. Klene, C. Adamo, R. Cammi, 
 J. W. Ochterski, R. L. Martin, K. Morokuma, O. Farkas, 
 J. B. Foresman, and D. J. Fox, Gaussian, Inc., Wallingford CT, 2019.
 
 ******************************************
 Gaussian 16:  ES64L-G16RevC.01  3-Jul-2019
                 7-Mar-2026 
 ******************************************
 %nprocshared=112
 Will use up to  112 processors via shared memory.
 %mem=10GB
 %chk=Doxycycline.chk
 ----------------------------------------------------------------------
 # opt freq b3lyp/6-311++g(d,p) scrf=(pcm,solvent=water) geom=connectiv
 ity
 ----------------------------------------------------------------------
 1/18=20,19=15,26=3,38=1,57=2/1,3;
 2/9=110,12=2,17=6,18=5,40=1/2;
 3/5=4,6=6,7=1111,11=2,25=1,30=1,70=2201,71=1,72=1,74=-5/1,2,3;
 4//1;
 5/5=2,38=5,53=1/2;
 6/7=2,8=2,9=2,10=2,28=1/1;
 7//1,2,3,16;
 1/18=20,19=15,26=3/3(2);
 2/9=110/2;
 99//99;
 2/9=110/2;
 3/5=4,6=6,7=1111,11=2,25=1,30=1,70=2205,71=1,72=1,74=-5/1,2,3;
 4/5=5,16=3,69=1/1;
 5/5=2,38=5,53=1/2;
 7//1,2,3,16;
 1/18=20,19=15,26=3/3(-5);
 2/9=110/2;
 6/7=2,8=2,9=2,10=2,19=2,28=1/1;
 99/9=1/99;
 -----------
 Doxycycline
 -----------
 Symbolic Z-matrix:
 Charge =  0 Multiplicity = 1
 O                     4.6311   -2.7251   -4.0658 
 O                     3.2616    1.4167   -1.9494 
 O                     0.6333    0.7297   -2.5268 
 O                     1.9756    2.4418   -4.4949 
 O                    -0.6595   -0.3074   -4.5343 
 O                     5.8077    0.1666   -5.9934 
 O                    -1.4979   -1.4963   -6.914 
 O                     2.8229    2.9218   -6.812 
 N                     5.8961    1.1817   -2.808 
 N                     4.8969    2.4754   -7.4216 
 C                     4.0556   -0.5148   -3.1742 
 C                     2.3203   -2.3111   -3.4855 
 C                     3.6215   -1.7434   -4.063 
 C                     2.9623    0.6255   -3.0773 
 C                     5.3971    0.0721   -3.6753 
 C                     1.8333   -3.6905   -3.995 
 C                     1.2662   -1.2438   -3.6202 
 C                     1.5564    0.0179   -2.8964 
 C                     2.9714    1.5331   -4.3435 
 C                     1.0333   -3.5983   -5.26 
 C                     5.1096    0.5627   -5.0735 
 C                     0.2151   -1.3434   -4.4844 
 C                     3.9497    1.4758   -5.3045 
 C                     0.1539   -2.5056   -5.4577 
 C                     0.9026   -4.3335   -2.9434 
 C                     1.087    -4.6568   -6.1786 
 C                     6.2999    0.6922   -1.4738 
 C                     7.0554    1.8702   -3.4121 
 C                    -0.6641   -2.5142   -6.6253 
 C                     3.86      2.3264   -6.5579 
 C                     0.2789   -4.6477   -7.3081 
 C                    -0.5926   -3.5876   -7.5285 
 H                     4.1888   -0.9376   -2.1567 
 H                     2.5284   -2.4836   -2.404 
 H                     3.4391   -1.4499   -5.1199 
 H                     6.1813   -0.7196   -3.7203 
 H                     2.6856   -4.3995   -4.0883 
 H                     1.4409   -4.4788   -1.9824 
 H                     0.0065   -3.7041   -2.7524 
 H                     0.5628   -5.3345   -3.288 
 H                     4.7775   -3.0192   -3.1285 
 H                     2.6379    2.1884   -1.9196 
 H                     1.7446   -5.5006   -6.0091 
 H                     7.081    -0.0965   -1.5521 
 H                     6.6974    1.528    -0.8575 
 H                     5.437     0.2985   -0.9048 
 H                     7.4202    2.6804   -2.7436 
 H                     7.8887    1.1591   -3.6078 
 H                     6.7714    2.3712   -4.3607 
 H                     1.2751    2.597    -3.8502 
 H                    -1.4719   -0.2677   -5.046 
 H                     0.3231   -5.4683   -8.0127 
 H                    -1.2114   -3.5943   -8.4173 
 H                     5.8196    2.0527   -7.2755 
 H                     4.7849    3.0667   -8.2588 
 H                    -2.0521   -1.4804   -7.7074 
 

 GradGradGradGradGradGradGradGradGradGradGradGradGradGradGradGradGradGrad
 Berny optimization.
 Initialization pass.
                           ----------------------------
                           !    Initial Parameters    !
                           ! (Angstroms and Degrees)  !
 --------------------------                            --------------------------
 ! Name  Definition              Value          Derivative Info.                !
 --------------------------------------------------------------------------------
 ! R1    R(1,13)                 1.4082         estimate D2E/DX2                !
 ! R2    R(1,41)                 0.9932         estimate D2E/DX2                !
 ! R3    R(2,14)                 1.4099         estimate D2E/DX2                !
 ! R4    R(2,42)                 0.9927         estimate D2E/DX2                !
 ! R5    R(3,18)                 1.2229         estimate D2E/DX2                !
 ! R6    R(4,19)                 1.3566         estimate D2E/DX2                !
 ! R7    R(4,50)                 0.9646         estimate D2E/DX2                !
 ! R8    R(5,22)                 1.3567         estimate D2E/DX2                !
 ! R9    R(5,51)                 0.9609         estimate D2E/DX2                !
 ! R10   R(6,21)                 1.2208         estimate D2E/DX2                !
 ! R11   R(7,29)                 1.3471         estimate D2E/DX2                !
 ! R12   R(7,56)                 0.9679         estimate D2E/DX2                !
 ! R13   R(8,30)                 1.2226         estimate D2E/DX2                !
 ! R14   R(9,15)                 1.4941         estimate D2E/DX2                !
 ! R15   R(9,27)                 1.4774         estimate D2E/DX2                !
 ! R16   R(9,28)                 1.4775         estimate D2E/DX2                !
 ! R17   R(10,30)                1.3577         estimate D2E/DX2                !
 ! R18   R(10,54)                1.0254         estimate D2E/DX2                !
 ! R19   R(10,55)                1.0311         estimate D2E/DX2                !
 ! R20   R(11,13)                1.5773         estimate D2E/DX2                !
 ! R21   R(11,14)                1.5827         estimate D2E/DX2                !
 ! R22   R(11,15)                1.5476         estimate D2E/DX2                !
 ! R23   R(11,33)                1.1099         estimate D2E/DX2                !
 ! R24   R(12,13)                1.5326         estimate D2E/DX2                !
 ! R25   R(12,16)                1.549          estimate D2E/DX2                !
 ! R26   R(12,17)                1.5061         estimate D2E/DX2                !
 ! R27   R(12,34)                1.1148         estimate D2E/DX2                !
 ! R28   R(13,35)                1.112          estimate D2E/DX2                !
 ! R29   R(14,18)                1.5422         estimate D2E/DX2                !
 ! R30   R(14,19)                1.5579         estimate D2E/DX2                !
 ! R31   R(15,21)                1.5094         estimate D2E/DX2                !
 ! R32   R(15,36)                1.1153         estimate D2E/DX2                !
 ! R33   R(16,20)                1.4996         estimate D2E/DX2                !
 ! R34   R(16,25)                1.5445         estimate D2E/DX2                !
 ! R35   R(16,37)                1.1126         estimate D2E/DX2                !
 ! R36   R(17,18)                1.4832         estimate D2E/DX2                !
 ! R37   R(17,22)                1.3644         estimate D2E/DX2                !
 ! R38   R(19,23)                1.3725         estimate D2E/DX2                !
 ! R39   R(20,24)                1.4165         estimate D2E/DX2                !
 ! R40   R(20,26)                1.4025         estimate D2E/DX2                !
 ! R41   R(21,23)                1.4941         estimate D2E/DX2                !
 ! R42   R(22,24)                1.5172         estimate D2E/DX2                !
 ! R43   R(23,30)                1.5174         estimate D2E/DX2                !
 ! R44   R(24,29)                1.4257         estimate D2E/DX2                !
 ! R45   R(25,38)                1.111          estimate D2E/DX2                !
 ! R46   R(25,39)                1.1116         estimate D2E/DX2                !
 ! R47   R(25,40)                1.1119         estimate D2E/DX2                !
 ! R48   R(26,31)                1.3888         estimate D2E/DX2                !
 ! R49   R(26,43)                1.0831         estimate D2E/DX2                !
 ! R50   R(27,44)                1.1128         estimate D2E/DX2                !
 ! R51   R(27,45)                1.1119         estimate D2E/DX2                !
 ! R52   R(27,46)                1.1061         estimate D2E/DX2                !
 ! R53   R(28,47)                1.1119         estimate D2E/DX2                !
 ! R54   R(28,48)                1.1128         estimate D2E/DX2                !
 ! R55   R(28,49)                1.1097         estimate D2E/DX2                !
 ! R56   R(29,32)                1.4047         estimate D2E/DX2                !
 ! R57   R(31,32)                1.3899         estimate D2E/DX2                !
 ! R58   R(31,52)                1.0825         estimate D2E/DX2                !
 ! R59   R(32,53)                1.083          estimate D2E/DX2                !
 ! A1    A(13,1,41)            108.0731         estimate D2E/DX2                !
 ! A2    A(14,2,42)            109.0805         estimate D2E/DX2                !
 ! A3    A(19,4,50)            124.4906         estimate D2E/DX2                !
 ! A4    A(22,5,51)            126.5928         estimate D2E/DX2                !
 ! A5    A(29,7,56)            122.8524         estimate D2E/DX2                !
 ! A6    A(15,9,27)            111.6805         estimate D2E/DX2                !
 ! A7    A(15,9,28)            111.7637         estimate D2E/DX2                !
 ! A8    A(27,9,28)            108.0096         estimate D2E/DX2                !
 ! A9    A(30,10,54)           123.4605         estimate D2E/DX2                !
 ! A10   A(30,10,55)           119.77           estimate D2E/DX2                !
 ! A11   A(54,10,55)           116.7345         estimate D2E/DX2                !
 ! A12   A(13,11,14)           113.9275         estimate D2E/DX2                !
 ! A13   A(13,11,15)           110.5789         estimate D2E/DX2                !
 ! A14   A(13,11,33)           104.6492         estimate D2E/DX2                !
 ! A15   A(14,11,15)           110.2045         estimate D2E/DX2                !
 ! A16   A(14,11,33)           107.5318         estimate D2E/DX2                !
 ! A17   A(15,11,33)           109.7108         estimate D2E/DX2                !
 ! A18   A(13,12,16)           118.2182         estimate D2E/DX2                !
 ! A19   A(13,12,17)           107.3382         estimate D2E/DX2                !
 ! A20   A(13,12,34)           105.3308         estimate D2E/DX2                !
 ! A21   A(16,12,17)           112.4321         estimate D2E/DX2                !
 ! A22   A(16,12,34)           103.8861         estimate D2E/DX2                !
 ! A23   A(17,12,34)           109.0912         estimate D2E/DX2                !
 ! A24   A(1,13,11)            110.2929         estimate D2E/DX2                !
 ! A25   A(1,13,12)            110.5615         estimate D2E/DX2                !
 ! A26   A(1,13,35)            107.4408         estimate D2E/DX2                !
 ! A27   A(11,13,12)           108.0506         estimate D2E/DX2                !
 ! A28   A(11,13,35)           112.0331         estimate D2E/DX2                !
 ! A29   A(12,13,35)           108.4606         estimate D2E/DX2                !
 ! A30   A(2,14,11)            107.8577         estimate D2E/DX2                !
 ! A31   A(2,14,18)            108.71           estimate D2E/DX2                !
 ! A32   A(2,14,19)            108.7859         estimate D2E/DX2                !
 ! A33   A(11,14,18)           110.6738         estimate D2E/DX2                !
 ! A34   A(11,14,19)           111.4651         estimate D2E/DX2                !
 ! A35   A(18,14,19)           109.2797         estimate D2E/DX2                !
 ! A36   A(9,15,11)            112.5301         estimate D2E/DX2                !
 ! A37   A(9,15,21)            111.0964         estimate D2E/DX2                !
 ! A38   A(9,15,36)            108.4075         estimate D2E/DX2                !
 ! A39   A(11,15,21)           104.9565         estimate D2E/DX2                !
 ! A40   A(11,15,36)           110.6932         estimate D2E/DX2                !
 ! A41   A(21,15,36)           109.1043         estimate D2E/DX2                !
 ! A42   A(12,16,20)           112.9815         estimate D2E/DX2                !
 ! A43   A(12,16,25)           109.647          estimate D2E/DX2                !
 ! A44   A(12,16,37)           110.7456         estimate D2E/DX2                !
 ! A45   A(20,16,25)           106.1697         estimate D2E/DX2                !
 ! A46   A(20,16,37)           112.1557         estimate D2E/DX2                !
 ! A47   A(25,16,37)           104.6798         estimate D2E/DX2                !
 ! A48   A(12,17,18)           114.975          estimate D2E/DX2                !
 ! A49   A(12,17,22)           122.9623         estimate D2E/DX2                !
 ! A50   A(18,17,22)           121.4606         estimate D2E/DX2                !
 ! A51   A(3,18,14)            119.6218         estimate D2E/DX2                !
 ! A52   A(3,18,17)            119.6657         estimate D2E/DX2                !
 ! A53   A(14,18,17)           117.1454         estimate D2E/DX2                !
 ! A54   A(4,19,14)            118.4675         estimate D2E/DX2                !
 ! A55   A(4,19,23)            118.2314         estimate D2E/DX2                !
 ! A56   A(14,19,23)           123.2917         estimate D2E/DX2                !
 ! A57   A(16,20,24)           119.7603         estimate D2E/DX2                !
 ! A58   A(16,20,26)           119.0565         estimate D2E/DX2                !
 ! A59   A(24,20,26)           120.9672         estimate D2E/DX2                !
 ! A60   A(6,21,15)            118.9216         estimate D2E/DX2                !
 ! A61   A(6,21,23)            121.7142         estimate D2E/DX2                !
 ! A62   A(15,21,23)           119.3212         estimate D2E/DX2                !
 ! A63   A(5,22,17)            117.6565         estimate D2E/DX2                !
 ! A64   A(5,22,24)            122.3676         estimate D2E/DX2                !
 ! A65   A(17,22,24)           119.5601         estimate D2E/DX2                !
 ! A66   A(19,23,21)           118.072          estimate D2E/DX2                !
 ! A67   A(19,23,30)           120.8505         estimate D2E/DX2                !
 ! A68   A(21,23,30)           121.0748         estimate D2E/DX2                !
 ! A69   A(20,24,22)           118.4475         estimate D2E/DX2                !
 ! A70   A(20,24,29)           117.7666         estimate D2E/DX2                !
 ! A71   A(22,24,29)           123.585          estimate D2E/DX2                !
 ! A72   A(16,25,38)           110.5735         estimate D2E/DX2                !
 ! A73   A(16,25,39)           111.5331         estimate D2E/DX2                !
 ! A74   A(16,25,40)           110.3616         estimate D2E/DX2                !
 ! A75   A(38,25,39)           108.4216         estimate D2E/DX2                !
 ! A76   A(38,25,40)           107.3622         estimate D2E/DX2                !
 ! A77   A(39,25,40)           108.4605         estimate D2E/DX2                !
 ! A78   A(20,26,31)           120.3599         estimate D2E/DX2                !
 ! A79   A(20,26,43)           120.5768         estimate D2E/DX2                !
 ! A80   A(31,26,43)           119.054          estimate D2E/DX2                !
 ! A81   A(9,27,44)            111.2928         estimate D2E/DX2                !
 ! A82   A(9,27,45)            110.4381         estimate D2E/DX2                !
 ! A83   A(9,27,46)            111.6711         estimate D2E/DX2                !
 ! A84   A(44,27,45)           108.7125         estimate D2E/DX2                !
 ! A85   A(44,27,46)           109.3619         estimate D2E/DX2                !
 ! A86   A(45,27,46)           105.1482         estimate D2E/DX2                !
 ! A87   A(9,28,47)            110.5578         estimate D2E/DX2                !
 ! A88   A(9,28,48)            111.204          estimate D2E/DX2                !
 ! A89   A(9,28,49)            111.0436         estimate D2E/DX2                !
 ! A90   A(47,28,48)           109.006          estimate D2E/DX2                !
 ! A91   A(47,28,49)           105.6            estimate D2E/DX2                !
 ! A92   A(48,28,49)           109.2567         estimate D2E/DX2                !
 ! A93   A(7,29,24)            121.7424         estimate D2E/DX2                !
 ! A94   A(7,29,32)            118.1074         estimate D2E/DX2                !
 ! A95   A(24,29,32)           120.1336         estimate D2E/DX2                !
 ! A96   A(8,30,10)            117.5292         estimate D2E/DX2                !
 ! A97   A(8,30,23)            119.6581         estimate D2E/DX2                !
 ! A98   A(10,30,23)           122.8087         estimate D2E/DX2                !
 ! A99   A(26,31,32)           119.9196         estimate D2E/DX2                !
 ! A100  A(26,31,52)           120.0419         estimate D2E/DX2                !
 ! A101  A(32,31,52)           120.0373         estimate D2E/DX2                !
 ! A102  A(29,32,31)           120.8498         estimate D2E/DX2                !
 ! A103  A(29,32,53)           120.221          estimate D2E/DX2                !
 ! A104  A(31,32,53)           118.9253         estimate D2E/DX2                !
 ! D1    D(41,1,13,11)          59.7429         estimate D2E/DX2                !
 ! D2    D(41,1,13,12)         -59.6991         estimate D2E/DX2                !
 ! D3    D(41,1,13,35)        -177.8854         estimate D2E/DX2                !
 ! D4    D(42,2,14,11)         174.7104         estimate D2E/DX2                !
 ! D5    D(42,2,14,18)         -65.2415         estimate D2E/DX2                !
 ! D6    D(42,2,14,19)          53.6675         estimate D2E/DX2                !
 ! D7    D(50,4,19,14)           2.8783         estimate D2E/DX2                !
 ! D8    D(50,4,19,23)        -176.0407         estimate D2E/DX2                !
 ! D9    D(51,5,22,17)        -175.3897         estimate D2E/DX2                !
 ! D10   D(51,5,22,24)          12.0509         estimate D2E/DX2                !
 ! D11   D(56,7,29,24)         179.2239         estimate D2E/DX2                !
 ! D12   D(56,7,29,32)           0.7009         estimate D2E/DX2                !
 ! D13   D(27,9,15,11)          67.9173         estimate D2E/DX2                !
 ! D14   D(27,9,15,21)        -174.7263         estimate D2E/DX2                !
 ! D15   D(27,9,15,36)         -54.8512         estimate D2E/DX2                !
 ! D16   D(28,9,15,11)        -170.9536         estimate D2E/DX2                !
 ! D17   D(28,9,15,21)         -53.5973         estimate D2E/DX2                !
 ! D18   D(28,9,15,36)          66.2778         estimate D2E/DX2                !
 ! D19   D(15,9,27,44)          57.3652         estimate D2E/DX2                !
 ! D20   D(15,9,27,45)         178.2086         estimate D2E/DX2                !
 ! D21   D(15,9,27,46)         -65.1656         estimate D2E/DX2                !
 ! D22   D(28,9,27,44)         -65.9202         estimate D2E/DX2                !
 ! D23   D(28,9,27,45)          54.9232         estimate D2E/DX2                !
 ! D24   D(28,9,27,46)         171.5489         estimate D2E/DX2                !
 ! D25   D(15,9,28,47)        -179.0935         estimate D2E/DX2                !
 ! D26   D(15,9,28,48)         -57.8571         estimate D2E/DX2                !
 ! D27   D(15,9,28,49)          64.0329         estimate D2E/DX2                !
 ! D28   D(27,9,28,47)         -55.8587         estimate D2E/DX2                !
 ! D29   D(27,9,28,48)          65.3778         estimate D2E/DX2                !
 ! D30   D(27,9,28,49)        -172.7323         estimate D2E/DX2                !
 ! D31   D(54,10,30,8)         177.1624         estimate D2E/DX2                !
 ! D32   D(54,10,30,23)         -2.0991         estimate D2E/DX2                !
 ! D33   D(55,10,30,8)          -0.6151         estimate D2E/DX2                !
 ! D34   D(55,10,30,23)       -179.8766         estimate D2E/DX2                !
 ! D35   D(14,11,13,1)        -178.3448         estimate D2E/DX2                !
 ! D36   D(14,11,13,12)        -57.3912         estimate D2E/DX2                !
 ! D37   D(14,11,13,35)         62.0266         estimate D2E/DX2                !
 ! D38   D(15,11,13,1)          56.8915         estimate D2E/DX2                !
 ! D39   D(15,11,13,12)        177.8451         estimate D2E/DX2                !
 ! D40   D(15,11,13,35)        -62.7372         estimate D2E/DX2                !
 ! D41   D(33,11,13,1)         -61.1758         estimate D2E/DX2                !
 ! D42   D(33,11,13,12)         59.7778         estimate D2E/DX2                !
 ! D43   D(33,11,13,35)        179.1955         estimate D2E/DX2                !
 ! D44   D(13,11,14,2)         160.8695         estimate D2E/DX2                !
 ! D45   D(13,11,14,18)         42.0676         estimate D2E/DX2                !
 ! D46   D(13,11,14,19)        -79.7747         estimate D2E/DX2                !
 ! D47   D(15,11,14,2)         -74.167          estimate D2E/DX2                !
 ! D48   D(15,11,14,18)        167.0311         estimate D2E/DX2                !
 ! D49   D(15,11,14,19)         45.1888         estimate D2E/DX2                !
 ! D50   D(33,11,14,2)          45.3811         estimate D2E/DX2                !
 ! D51   D(33,11,14,18)        -73.4209         estimate D2E/DX2                !
 ! D52   D(33,11,14,19)        164.7369         estimate D2E/DX2                !
 ! D53   D(13,11,15,9)        -176.1527         estimate D2E/DX2                !
 ! D54   D(13,11,15,21)         62.906          estimate D2E/DX2                !
 ! D55   D(13,11,15,36)        -54.677          estimate D2E/DX2                !
 ! D56   D(14,11,15,9)          56.9913         estimate D2E/DX2                !
 ! D57   D(14,11,15,21)        -63.95           estimate D2E/DX2                !
 ! D58   D(14,11,15,36)        178.467          estimate D2E/DX2                !
 ! D59   D(33,11,15,9)         -61.2257         estimate D2E/DX2                !
 ! D60   D(33,11,15,21)        177.833          estimate D2E/DX2                !
 ! D61   D(33,11,15,36)         60.25           estimate D2E/DX2                !
 ! D62   D(16,12,13,1)         -47.0528         estimate D2E/DX2                !
 ! D63   D(16,12,13,11)       -167.839          estimate D2E/DX2                !
 ! D64   D(16,12,13,35)         70.5088         estimate D2E/DX2                !
 ! D65   D(17,12,13,1)        -175.4562         estimate D2E/DX2                !
 ! D66   D(17,12,13,11)         63.7575         estimate D2E/DX2                !
 ! D67   D(17,12,13,35)        -57.8947         estimate D2E/DX2                !
 ! D68   D(34,12,13,1)          68.3843         estimate D2E/DX2                !
 ! D69   D(34,12,13,11)        -52.4019         estimate D2E/DX2                !
 ! D70   D(34,12,13,35)       -174.0541         estimate D2E/DX2                !
 ! D71   D(13,12,16,20)        -84.8856         estimate D2E/DX2                !
 ! D72   D(13,12,16,25)        156.9115         estimate D2E/DX2                !
 ! D73   D(13,12,16,37)         41.8896         estimate D2E/DX2                !
 ! D74   D(17,12,16,20)         41.0882         estimate D2E/DX2                !
 ! D75   D(17,12,16,25)        -77.1147         estimate D2E/DX2                !
 ! D76   D(17,12,16,37)        167.8634         estimate D2E/DX2                !
 ! D77   D(34,12,16,20)        158.8993         estimate D2E/DX2                !
 ! D78   D(34,12,16,25)         40.6963         estimate D2E/DX2                !
 ! D79   D(34,12,16,37)        -74.3256         estimate D2E/DX2                !
 ! D80   D(13,12,17,18)        -60.724          estimate D2E/DX2                !
 ! D81   D(13,12,17,22)        110.4848         estimate D2E/DX2                !
 ! D82   D(16,12,17,18)        167.6114         estimate D2E/DX2                !
 ! D83   D(16,12,17,22)        -21.1798         estimate D2E/DX2                !
 ! D84   D(34,12,17,18)         52.9261         estimate D2E/DX2                !
 ! D85   D(34,12,17,22)       -135.865          estimate D2E/DX2                !
 ! D86   D(2,14,18,3)           46.5017         estimate D2E/DX2                !
 ! D87   D(2,14,18,17)        -154.852          estimate D2E/DX2                !
 ! D88   D(11,14,18,3)         164.7859         estimate D2E/DX2                !
 ! D89   D(11,14,18,17)        -36.5678         estimate D2E/DX2                !
 ! D90   D(19,14,18,3)         -72.0969         estimate D2E/DX2                !
 ! D91   D(19,14,18,17)         86.5494         estimate D2E/DX2                !
 ! D92   D(2,14,19,4)          -70.0259         estimate D2E/DX2                !
 ! D93   D(2,14,19,23)         108.8347         estimate D2E/DX2                !
 ! D94   D(11,14,19,4)         171.171          estimate D2E/DX2                !
 ! D95   D(11,14,19,23)         -9.9684         estimate D2E/DX2                !
 ! D96   D(18,14,19,4)          48.5254         estimate D2E/DX2                !
 ! D97   D(18,14,19,23)       -132.614          estimate D2E/DX2                !
 ! D98   D(9,15,21,6)          112.5594         estimate D2E/DX2                !
 ! D99   D(9,15,21,23)         -69.7838         estimate D2E/DX2                !
 ! D100  D(11,15,21,6)        -125.5595         estimate D2E/DX2                !
 ! D101  D(11,15,21,23)         52.0973         estimate D2E/DX2                !
 ! D102  D(36,15,21,6)          -6.9003         estimate D2E/DX2                !
 ! D103  D(36,15,21,23)        170.7565         estimate D2E/DX2                !
 ! D104  D(12,16,20,24)        -36.8359         estimate D2E/DX2                !
 ! D105  D(12,16,20,26)        148.4516         estimate D2E/DX2                !
 ! D106  D(25,16,20,24)         83.3774         estimate D2E/DX2                !
 ! D107  D(25,16,20,26)        -91.3351         estimate D2E/DX2                !
 ! D108  D(37,16,20,24)       -162.8595         estimate D2E/DX2                !
 ! D109  D(37,16,20,26)         22.428          estimate D2E/DX2                !
 ! D110  D(12,16,25,38)        -60.1757         estimate D2E/DX2                !
 ! D111  D(12,16,25,39)         60.5523         estimate D2E/DX2                !
 ! D112  D(12,16,25,40)       -178.8146         estimate D2E/DX2                !
 ! D113  D(20,16,25,38)        177.4695         estimate D2E/DX2                !
 ! D114  D(20,16,25,39)        -61.8025         estimate D2E/DX2                !
 ! D115  D(20,16,25,40)         58.8305         estimate D2E/DX2                !
 ! D116  D(37,16,25,38)         58.6621         estimate D2E/DX2                !
 ! D117  D(37,16,25,39)        179.3901         estimate D2E/DX2                !
 ! D118  D(37,16,25,40)        -59.9768         estimate D2E/DX2                !
 ! D119  D(12,17,18,3)        -153.4804         estimate D2E/DX2                !
 ! D120  D(12,17,18,14)         47.883          estimate D2E/DX2                !
 ! D121  D(22,17,18,3)          35.1656         estimate D2E/DX2                !
 ! D122  D(22,17,18,14)       -123.4709         estimate D2E/DX2                !
 ! D123  D(12,17,22,5)        -178.8978         estimate D2E/DX2                !
 ! D124  D(12,17,22,24)         -6.1216         estimate D2E/DX2                !
 ! D125  D(18,17,22,5)          -8.2451         estimate D2E/DX2                !
 ! D126  D(18,17,22,24)        164.5311         estimate D2E/DX2                !
 ! D127  D(4,19,23,21)         174.5321         estimate D2E/DX2                !
 ! D128  D(4,19,23,30)          -4.8817         estimate D2E/DX2                !
 ! D129  D(14,19,23,21)         -4.3311         estimate D2E/DX2                !
 ! D130  D(14,19,23,30)        176.2552         estimate D2E/DX2                !
 ! D131  D(16,20,24,22)          9.8463         estimate D2E/DX2                !
 ! D132  D(16,20,24,29)       -175.1174         estimate D2E/DX2                !
 ! D133  D(26,20,24,22)       -175.5443         estimate D2E/DX2                !
 ! D134  D(26,20,24,29)         -0.508          estimate D2E/DX2                !
 ! D135  D(16,20,26,31)        174.9924         estimate D2E/DX2                !
 ! D136  D(16,20,26,43)         -3.8836         estimate D2E/DX2                !
 ! D137  D(24,20,26,31)          0.3458         estimate D2E/DX2                !
 ! D138  D(24,20,26,43)       -178.5303         estimate D2E/DX2                !
 ! D139  D(6,21,23,19)         159.1195         estimate D2E/DX2                !
 ! D140  D(6,21,23,30)         -21.4681         estimate D2E/DX2                !
 ! D141  D(15,21,23,19)        -18.4695         estimate D2E/DX2                !
 ! D142  D(15,21,23,30)        160.9429         estimate D2E/DX2                !
 ! D143  D(5,22,24,20)        -174.6317         estimate D2E/DX2                !
 ! D144  D(5,22,24,29)          10.6414         estimate D2E/DX2                !
 ! D145  D(17,22,24,20)         12.9457         estimate D2E/DX2                !
 ! D146  D(17,22,24,29)       -161.7812         estimate D2E/DX2                !
 ! D147  D(19,23,30,8)         -10.6472         estimate D2E/DX2                !
 ! D148  D(19,23,30,10)        168.5991         estimate D2E/DX2                !
 ! D149  D(21,23,30,8)         169.9567         estimate D2E/DX2                !
 ! D150  D(21,23,30,10)        -10.7969         estimate D2E/DX2                !
 ! D151  D(20,24,29,7)        -177.8842         estimate D2E/DX2                !
 ! D152  D(20,24,29,32)          0.6093         estimate D2E/DX2                !
 ! D153  D(22,24,29,7)          -3.1239         estimate D2E/DX2                !
 ! D154  D(22,24,29,32)        175.3696         estimate D2E/DX2                !
 ! D155  D(20,26,31,32)         -0.2711         estimate D2E/DX2                !
 ! D156  D(20,26,31,52)       -179.8779         estimate D2E/DX2                !
 ! D157  D(43,26,31,32)        178.6219         estimate D2E/DX2                !
 ! D158  D(43,26,31,52)         -0.9849         estimate D2E/DX2                !
 ! D159  D(7,29,32,31)         177.9902         estimate D2E/DX2                !
 ! D160  D(7,29,32,53)          -1.2861         estimate D2E/DX2                !
 ! D161  D(24,29,32,31)         -0.5574         estimate D2E/DX2                !
 ! D162  D(24,29,32,53)       -179.8337         estimate D2E/DX2                !
 ! D163  D(26,31,32,29)          0.3801         estimate D2E/DX2                !
 ! D164  D(26,31,32,53)        179.6656         estimate D2E/DX2                !
 ! D165  D(52,31,32,29)        179.987          estimate D2E/DX2                !
 ! D166  D(52,31,32,53)         -0.7275         estimate D2E/DX2                !
 --------------------------------------------------------------------------------
 Trust Radius=3.00D-01 FncErr=1.00D-07 GrdErr=1.00D-06 EigMax=2.50D+02 EigMin=1.00D-04
 Number of steps in this run=    336 maximum allowed number of steps=    336.
 GradGradGradGradGradGradGradGradGradGradGradGradGradGradGradGradGradGrad

 Stoichiometry    C22H24N2O8
 Framework group  C1[X(C22H24N2O8)]
 Deg. of freedom   162
 Full point group                 C1      NOp   1
 Largest Abelian subgroup         C1      NOp   1
 Largest concise Abelian subgroup C1      NOp   1
                         Standard orientation:                         
 ---------------------------------------------------------------------
 Center     Atomic      Atomic             Coordinates (Angstroms)
 Number     Number       Type             X           Y           Z
 ---------------------------------------------------------------------
      1          8           0        0.180284   -2.358740   -1.773662
      2          8           0        2.397346   -0.754476    2.228857
      3          8           0       -0.085456    0.079047    3.153116
      4          8           0        1.502020    2.098549    1.736074
      5          8           0       -2.186470    1.248658    2.155761
      6          8           0        2.421506    0.436388   -2.564949
      7          8           0       -4.150356    2.431972    0.567590
      8          8           0        1.848877    3.742394   -0.133346
      9          7           0        3.931974   -1.172750   -0.052146
     10          7           0        2.904338    3.200745   -1.994792
     11          6           0        1.416462   -1.387727    0.107978
     12          6           0       -1.074149   -1.739128    0.198752
     13          6           0        0.088151   -1.404229   -0.742424
     14          6           0        1.389926   -0.370597    1.320299
     15          6           0        2.639190   -1.107280   -0.798367
     16          6           0       -2.444103   -2.098888   -0.428387
     17          6           0       -1.177087   -0.619536    1.200909
     18          6           0        0.027961   -0.419320    2.042195
     19          6           0        1.669673    1.087259    0.847558
     20          6           0       -3.275008   -0.893026   -0.751215
     21          6           0        2.402546    0.275689   -1.354878
     22          6           0       -2.213740    0.267361    1.219266
     23          6           0        2.099675    1.399478   -0.417942
     24          6           0       -3.251169    0.229097    0.112900
     25          6           0       -3.270397   -2.934908    0.573523
     26          6           0       -4.148930   -0.941510   -1.847135
     27          6           0        4.237315   -2.548668    0.390990
     28          6           0        5.063516   -0.695752   -0.873748
     29          6           0       -4.136113    1.308840   -0.176091
     30          6           0        2.274479    2.844764   -0.845925
     31          6           0       -5.005836    0.119602   -2.109115
     32          6           0       -5.003022    1.234267   -1.278805
     33          1           0        1.491300   -2.410860    0.531542
     34          1           0       -0.767493   -2.672667    0.725221
     35          1           0       -0.115589   -0.419485   -1.216998
     36          1           0        2.681259   -1.837310   -1.640430
     37          1           0       -2.311403   -2.765108   -1.309490
     38          1           0       -2.737937   -3.875887    0.829346
     39          1           0       -3.461949   -2.373045    1.513330
     40          1           0       -4.248499   -3.218018    0.127004
     41          1           0        0.328016   -3.248462   -1.357695
     42          1           0        2.454295   -0.079456    2.954470
     43          1           0       -4.178657   -1.812703   -2.490024
     44          1           0        4.270832   -3.252513   -0.470273
     45          1           0        5.217521   -2.579281    0.915063
     46          1           0        3.501517   -2.911627    1.132758
     47          1           0        6.016527   -0.768302   -0.305504
     48          1           0        5.155763   -1.285522   -1.812904
     49          1           0        4.947625    0.378655   -1.126173
     50          1           0        1.257222    1.977830    2.661237
     51          1           0       -2.873465    1.899134    2.324061
     52          1           0       -5.679620    0.075899   -2.955227
     53          1           0       -5.673962    2.054812   -1.501219
     54          1           0        3.332402    2.525965   -2.637310
     55          1           0        2.998517    4.197991   -2.239155
     56          1           0       -4.736436    3.178942    0.379388
 ---------------------------------------------------------------------
 Rotational constants (GHZ):           0.2186295           0.1079383           0.0991346
 Standard basis: 6-311++G(d,p) (5D, 7F)
 There are   904 symmetry adapted cartesian basis functions of A   symmetry.
 There are   872 symmetry adapted basis functions of A   symmetry.
   872 basis functions,  1368 primitive gaussians,   904 cartesian basis functions
   117 alpha electrons      117 beta electrons
       nuclear repulsion energy      3571.6297617416 Hartrees.
 NAtoms=   56 NActive=   56 NUniq=   56 SFac= 1.00D+00 NAtFMM=   60 NAOKFM=F Big=F
 Integral buffers will be    131072 words long.
 Raffenetti 2 integral format.
 Two-electron integral symmetry is turned on.
 ------------------------------------------------------------------------------
 Polarizable Continuum Model (PCM)
 =================================
 Model                : PCM.
 Atomic radii         : UFF (Universal Force Field).
 Polarization charges : Total charges.
 Charge compensation  : None.
 Solution method      : On-the-fly selection.
 Cavity type          : Scaled VdW (van der Waals Surface) (Alpha=1.100).
 Cavity algorithm     : GePol (No added spheres)
                        Default sphere list used, NSphG=   56.
                        Lebedev-Laikov grids with approx.  5.0 points / Ang**2.
                        Smoothing algorithm: York/Karplus (Gamma=1.0000).
                        Polarization charges: spherical gaussians, with
                                              point-specific exponents (IZeta= 3).
                        Self-potential: point-specific (ISelfS= 7).
                        Self-field    : sphere-specific E.n sum rule (ISelfD= 2).
 1st derivatives      : Analytical E(r).r(x)/FMM algorithm (CHGder, D1EAlg=3).
                        Cavity 1st derivative terms included.
 Solvent              : Water, Eps=  78.355300 Eps(inf)=   1.777849
 ------------------------------------------------------------------------------
 One-electron integrals computed using PRISM.
 NBasis=   872 RedAO= T EigKep=  1.03D-06  NBF=   872
 NBsUse=   863 1.00D-06 EigRej=  9.20D-07 NBFU=   863
 ExpMin= 3.60D-02 ExpMax= 8.59D+03 ExpMxC= 1.30D+03 IAcc=3 IRadAn=         5 AccDes= 0.00D+00
 Harris functional with IExCor=  402 and IRadAn=       5 diagonalized for initial guess.
 HarFok:  IExCor=  402 AccDes= 0.00D+00 IRadAn=         5 IDoV= 1 UseB2=F ITyADJ=14
 ICtDFT=  3500011 ScaDFX=  1.000000  1.000000  1.000000  1.000000
 FoFCou: FMM=F IPFlag=           0 FMFlag=      100000 FMFlg1=           0
         NFxFlg=           0 DoJE=T BraDBF=F KetDBF=T FulRan=T
         wScrn=  0.000000 ICntrl=       500 IOpCl=  0 I1Cent=   200000004 NGrid=           0
         NMat0=    1 NMatS0=      1 NMatT0=    0 NMatD0=    1 NMtDS0=    0 NMtDT0=    0
 Petite list used in FoFCou.
 Requested convergence on RMS density matrix=1.00D-08 within 128 cycles.
 Requested convergence on MAX density matrix=1.00D-06.
 Requested convergence on             energy=1.00D-06.
 No special actions if energy rises.
 Inv3:  Mode=1 IEnd=    38578188.
 Iteration    1 A*A^-1 deviation from unit magnitude is 5.77D-15 for   3584.
 Iteration    1 A*A^-1 deviation from orthogonality  is 2.98D-15 for   3386   3282.
 Iteration    1 A^-1*A deviation from unit magnitude is 5.77D-15 for   3584.
 Iteration    1 A^-1*A deviation from orthogonality  is 2.74D-14 for   2016   1925.
 Error on total polarization charges =  0.02086
 SCF Done:  E(RB3LYP) =  -1564.47993751     A.U. after   15 cycles
            NFock= 15  Conv=0.82D-08     -V/T= 2.0045

 **********************************************************************

            Population analysis using the SCF Density.

 **********************************************************************

 Orbital symmetries:
       Occupied  (A) (A) (A) (A) (A) (A) (A) (A) (A) (A) (A) (A)
                 (A) (A) (A) (A) (A) (A) (A) (A) (A) (A) (A) (A)
                 (A) (A) (A) (A) (A) (A) (A) (A) (A) (A) (A) (A)
                 (A) (A) (A) (A) (A) (A) (A) (A) (A) (A) (A) (A)
                 (A) (A) (A) (A) (A) (A) (A) (A) (A) (A) (A) (A)
                 (A) (A) (A) (A) (A) (A) (A) (A) (A) (A) (A) (A)
                 (A) (A) (A) (A) (A) (A) (A) (A) (A) (A) (A) (A)
                 (A) (A) (A) (A) (A) (A) (A) (A) (A) (A) (A) (A)
                 (A) (A) (A) (A) (A) (A) (A) (A) (A) (A) (A) (A)
                 (A) (A) (A) (A) (A) (A) (A) (A) (A)
       Virtual   (A) (A) (A) (A) (A) (A) (A) (A) (A) (A) (A) (A)
                 (A) (A) (A) (A) (A) (A) (A) (A) (A) (A) (A) (A)
                 (A) (A) (A) (A) (A) (A) (A) (A) (A) (A) (A) (A)
                 (A) (A) (A) (A) (A) (A) (A) (A) (A) (A) (A) (A)
                 (A) (A) (A) (A) (A) (A) (A) (A) (A) (A) (A) (A)
                 (A) (A) (A) (A) (A) (A) (A) (A) (A) (A) (A) (A)
                 (A) (A) (A) (A) (A) (A) (A) (A) (A) (A) (A) (A)
                 (A) (A) (A) (A) (A) (A) (A) (A) (A) (A) (A) (A)
                 (A) (A) (A) (A) (A) (A) (A) (A) (A) (A) (A) (A)
                 (A) (A) (A) (A) (A) (A) (A) (A) (A) (A) (A) (A)
                 (A) (A) (A) (A) (A) (A) (A) (A) (A) (A) (A) (A)
                 (A) (A) (A) (A) (A) (A) (A) (A) (A) (A) (A) (A)
                 (A) (A) (A) (A) (A) (A) (A) (A) (A) (A) (A) (A)
                 (A) (A) (A) (A) (A) (A) (A) (A) (A) (A) (A) (A)
                 (A) (A) (A) (A) (A) (A) (A) (A) (A) (A) (A) (A)
                 (A) (A) (A) (A) (A) (A) (A) (A) (A) (A) (A) (A)
                 (A) (A) (A) (A) (A) (A) (A) (A) (A) (A) (A) (A)
                 (A) (A) (A) (A) (A) (A) (A) (A) (A) (A) (A) (A)
                 (A) (A) (A) (A) (A) (A) (A) (A) (A) (A) (A) (A)
                 (A) (A) (A) (A) (A) (A) (A) (A) (A) (A) (A) (A)
                 (A) (A) (A) (A) (A) (A) (A) (A) (A) (A) (A) (A)
                 (A) (A) (A) (A) (A) (A) (A) (A) (A) (A) (A) (A)
                 (A) (A) (A) (A) (A) (A) (A) (A) (A) (A) (A) (A)
                 (A) (A) (A) (A) (A) (A) (A) (A) (A) (A) (A) (A)
                 (A) (A) (A) (A) (A) (A) (A) (A) (A) (A) (A) (A)
                 (A) (A) (A) (A) (A) (A) (A) (A) (A) (A) (A) (A)
                 (A) (A) (A) (A) (A) (A) (A) (A) (A) (A) (A) (A)
                 (A) (A) (A) (A) (A) (A) (A) (A) (A) (A) (A) (A)
                 (A) (A) (A) (A) (A) (A) (A) (A) (A) (A) (A) (A)
                 (A) (A) (A) (A) (A) (A) (A) (A) (A) (A) (A) (A)
                 (A) (A) (A) (A) (A) (A) (A) (A) (A) (A) (A) (A)
                 (A) (A) (A) (A) (A) (A) (A) (A) (A) (A) (A) (A)
                 (A) (A) (A) (A) (A) (A) (A) (A) (A) (A) (A) (A)
                 (A) (A) (A) (A) (A) (A) (A) (A) (A) (A) (A) (A)
                 (A) (A) (A) (A) (A) (A) (A) (A) (A) (A) (A) (A)
                 (A) (A) (A) (A) (A) (A) (A) (A) (A) (A) (A) (A)
                 (A) (A) (A) (A) (A) (A) (A) (A) (A) (A) (A) (A)
                 (A) (A) (A) (A) (A) (A) (A) (A) (A) (A) (A) (A)
                 (A) (A) (A) (A) (A) (A) (A) (A) (A) (A) (A) (A)
                 (A) (A) (A) (A) (A) (A) (A) (A) (A) (A) (A) (A)
                 (A) (A) (A) (A) (A) (A) (A) (A) (A) (A) (A) (A)
                 (A) (A) (A) (A) (A) (A) (A) (A) (A) (A) (A) (A)
                 (A) (A) (A) (A) (A) (A) (A) (A) (A) (A) (A) (A)
                 (A) (A) (A) (A) (A) (A) (A) (A) (A) (A) (A) (A)
                 (A) (A) (A) (A) (A) (A) (A) (A) (A) (A) (A) (A)
                 (A) (A) (A) (A) (A) (A) (A) (A) (A) (A) (A) (A)
                 (A) (A) (A) (A) (A) (A) (A) (A) (A) (A) (A) (A)
                 (A) (A) (A) (A) (A) (A) (A) (A) (A) (A) (A) (A)
                 (A) (A) (A) (A) (A) (A) (A) (A) (A) (A) (A) (A)
                 (A) (A) (A) (A) (A) (A) (A) (A) (A) (A) (A) (A)
                 (A) (A) (A) (A) (A) (A) (A) (A) (A) (A) (A) (A)
                 (A) (A) (A) (A) (A) (A) (A) (A) (A) (A) (A) (A)
                 (A) (A) (A) (A) (A) (A) (A) (A) (A) (A) (A) (A)
                 (A) (A) (A) (A) (A) (A) (A) (A) (A) (A) (A) (A)
                 (A) (A) (A) (A) (A) (A) (A) (A) (A) (A) (A) (A)
                 (A) (A) (A) (A) (A) (A) (A) (A) (A) (A) (A) (A)
                 (A) (A) (A) (A) (A) (A) (A) (A) (A) (A) (A) (A)
                 (A) (A) (A) (A) (A) (A) (A) (A) (A) (A) (A) (A)
                 (A) (A) (A) (A) (A) (A) (A) (A) (A) (A) (A) (A)
                 (A) (A) (A) (A) (A) (A) (A) (A) (A) (A) (A) (A)
                 (A) (A) (A) (A) (A) (A) (A) (A) (A) (A) (A) (A)
                 (A) (A) (A) (A) (A) (A) (A) (A) (A) (A) (A) (A)
                 (A) (A)
 The electronic state is 1-A.
 Alpha  occ. eigenvalues --  -19.18555 -19.17211 -19.16414 -19.15052 -19.14442
 Alpha  occ. eigenvalues --  -19.13291 -19.13028 -19.09165 -14.33895 -14.31858
 Alpha  occ. eigenvalues --  -10.30059 -10.29404 -10.28169 -10.28134 -10.28085
 Alpha  occ. eigenvalues --  -10.27862 -10.26637 -10.24705 -10.22179 -10.21405
 Alpha  occ. eigenvalues --  -10.21218 -10.21092 -10.20372 -10.19767 -10.19467
 Alpha  occ. eigenvalues --  -10.19413 -10.19222 -10.18988 -10.18934 -10.18346
 Alpha  occ. eigenvalues --  -10.17879 -10.17072  -1.10111  -1.08858  -1.07751
 Alpha  occ. eigenvalues --   -1.06757  -1.06749  -1.05038  -1.04794  -1.04516
 Alpha  occ. eigenvalues --   -0.92800  -0.90292  -0.88889  -0.85944  -0.83870
 Alpha  occ. eigenvalues --   -0.80170  -0.79387  -0.77296  -0.74992  -0.74589
 Alpha  occ. eigenvalues --   -0.72381  -0.70464  -0.67869  -0.67572  -0.65585
 Alpha  occ. eigenvalues --   -0.64495  -0.63921  -0.63442  -0.62512  -0.60480
 Alpha  occ. eigenvalues --   -0.59443  -0.58592  -0.57009  -0.55492  -0.55361
 Alpha  occ. eigenvalues --   -0.53976  -0.53773  -0.51646  -0.51128  -0.50283
 Alpha  occ. eigenvalues --   -0.49560  -0.49202  -0.48962  -0.48363  -0.47938
 Alpha  occ. eigenvalues --   -0.47006  -0.46405  -0.45621  -0.45029  -0.44976
 Alpha  occ. eigenvalues --   -0.44366  -0.43946  -0.43211  -0.42846  -0.42777
 Alpha  occ. eigenvalues --   -0.41978  -0.41515  -0.41126  -0.40623  -0.40403
 Alpha  occ. eigenvalues --   -0.40137  -0.39883  -0.39597  -0.39262  -0.39170
 Alpha  occ. eigenvalues --   -0.38832  -0.38756  -0.37645  -0.36808  -0.36303
 Alpha  occ. eigenvalues --   -0.35721  -0.35282  -0.34914  -0.34536  -0.34093
 Alpha  occ. eigenvalues --   -0.33055  -0.32277  -0.30171  -0.28582  -0.28380
 Alpha  occ. eigenvalues --   -0.27477  -0.27413  -0.26841  -0.25823  -0.24465
 Alpha  occ. eigenvalues --   -0.23050  -0.22542
 Alpha virt. eigenvalues --   -0.09415  -0.06852  -0.03247  -0.02589  -0.01722
 Alpha virt. eigenvalues --   -0.01420  -0.00842  -0.00701  -0.00104   0.00506
 Alpha virt. eigenvalues --    0.00837   0.01137   0.01506   0.02330   0.02553
 Alpha virt. eigenvalues --    0.02639   0.02826   0.03135   0.03573   0.03855
 Alpha virt. eigenvalues --    0.04398   0.04446   0.04990   0.05300   0.05482
 Alpha virt. eigenvalues --    0.05678   0.06151   0.06283   0.06549   0.07073
 Alpha virt. eigenvalues --    0.07215   0.07726   0.07995   0.08265   0.08348
 Alpha virt. eigenvalues --    0.08715   0.08784   0.09121   0.09340   0.09482
 Alpha virt. eigenvalues --    0.09974   0.10146   0.10407   0.10696   0.10818
 Alpha virt. eigenvalues --    0.10943   0.11252   0.11341   0.11556   0.11666
 Alpha virt. eigenvalues --    0.11927   0.12326   0.12585   0.12654   0.12691
 Alpha virt. eigenvalues --    0.12800   0.13017   0.13087   0.13392   0.13674
 Alpha virt. eigenvalues --    0.13770   0.14137   0.14190   0.14373   0.14762
 Alpha virt. eigenvalues --    0.14831   0.15025   0.15181   0.15302   0.15469
 Alpha virt. eigenvalues --    0.15525   0.15841   0.15960   0.16172   0.16569
 Alpha virt. eigenvalues --    0.16841   0.16913   0.17128   0.17284   0.17426
 Alpha virt. eigenvalues --    0.17711   0.17962   0.18067   0.18160   0.18406
 Alpha virt. eigenvalues --    0.18628   0.18728   0.18913   0.19227   0.19489
 Alpha virt. eigenvalues --    0.19532   0.19839   0.19984   0.20166   0.20619
 Alpha virt. eigenvalues --    0.20733   0.20867   0.21154   0.21737   0.21783
 Alpha virt. eigenvalues --    0.21909   0.22090   0.22267   0.22677   0.22889
 Alpha virt. eigenvalues --    0.23071   0.23241   0.23630   0.23990   0.24048
 Alpha virt. eigenvalues --    0.24304   0.24670   0.24925   0.25061   0.25230
 Alpha virt. eigenvalues --    0.25481   0.25604   0.25957   0.26190   0.26322
 Alpha virt. eigenvalues --    0.26555   0.26650   0.27154   0.27209   0.27496
 Alpha virt. eigenvalues --    0.27615   0.27891   0.27928   0.28266   0.28425
 Alpha virt. eigenvalues --    0.28971   0.29041   0.29229   0.29332   0.29854
 Alpha virt. eigenvalues --    0.30000   0.30375   0.30539   0.30733   0.31010
 Alpha virt. eigenvalues --    0.31180   0.31498   0.31652   0.31976   0.32096
 Alpha virt. eigenvalues --    0.32585   0.32629   0.32802   0.33085   0.33313
 Alpha virt. eigenvalues --    0.33389   0.33526   0.33881   0.34115   0.34216
 Alpha virt. eigenvalues --    0.34748   0.34801   0.35153   0.35305   0.35400
 Alpha virt. eigenvalues --    0.35840   0.36130   0.36282   0.36424   0.36883
 Alpha virt. eigenvalues --    0.37278   0.37601   0.37716   0.37845   0.38106
 Alpha virt. eigenvalues --    0.38518   0.38954   0.39209   0.39456   0.40147
 Alpha virt. eigenvalues --    0.40255   0.40681   0.40950   0.41257   0.41320
 Alpha virt. eigenvalues --    0.41879   0.42250   0.42631   0.42838   0.43105
 Alpha virt. eigenvalues --    0.43406   0.43960   0.44122   0.45012   0.45197
 Alpha virt. eigenvalues --    0.45293   0.46148   0.46388   0.46540   0.47180
 Alpha virt. eigenvalues --    0.47360   0.47980   0.48218   0.48776   0.48872
 Alpha virt. eigenvalues --    0.49693   0.50446   0.51141   0.51326   0.51981
 Alpha virt. eigenvalues --    0.52324   0.53005   0.53862   0.54103   0.54285
 Alpha virt. eigenvalues --    0.54528   0.55509   0.55867   0.56266   0.56718
 Alpha virt. eigenvalues --    0.57694   0.57769   0.57853   0.58632   0.59054
 Alpha virt. eigenvalues --    0.59580   0.60014   0.60797   0.61045   0.61172
 Alpha virt. eigenvalues --    0.61418   0.61939   0.62665   0.62839   0.63350
 Alpha virt. eigenvalues --    0.63584   0.63895   0.64594   0.64839   0.65116
 Alpha virt. eigenvalues --    0.65395   0.66239   0.66831   0.67216   0.67469
 Alpha virt. eigenvalues --    0.68013   0.68498   0.68987   0.69137   0.69553
 Alpha virt. eigenvalues --    0.70053   0.70389   0.70635   0.71144   0.71495
 Alpha virt. eigenvalues --    0.72018   0.72258   0.72495   0.72916   0.73050
 Alpha virt. eigenvalues --    0.73453   0.74114   0.74584   0.74841   0.75071
 Alpha virt. eigenvalues --    0.75224   0.75818   0.76094   0.76717   0.76847
 Alpha virt. eigenvalues --    0.77403   0.77882   0.77887   0.78268   0.78576
 Alpha virt. eigenvalues --    0.79094   0.79631   0.80064   0.80934   0.81062
 Alpha virt. eigenvalues --    0.81557   0.82111   0.82368   0.82521   0.83115
 Alpha virt. eigenvalues --    0.84256   0.84618   0.84979   0.85447   0.86314
 Alpha virt. eigenvalues --    0.86653   0.87290   0.87861   0.88001   0.88612
 Alpha virt. eigenvalues --    0.88943   0.89071   0.90186   0.90861   0.91356
 Alpha virt. eigenvalues --    0.92696   0.92965   0.93936   0.94625   0.95461
 Alpha virt. eigenvalues --    0.96269   0.96863   0.97996   0.98162   0.99001
 Alpha virt. eigenvalues --    0.99731   1.00483   1.00732   1.01113   1.02273
 Alpha virt. eigenvalues --    1.02692   1.04296   1.04970   1.05512   1.06402
 Alpha virt. eigenvalues --    1.06628   1.07120   1.07578   1.08463   1.08567
 Alpha virt. eigenvalues --    1.08874   1.10390   1.10987   1.11623   1.12064
 Alpha virt. eigenvalues --    1.12906   1.13571   1.14657   1.14942   1.15252
 Alpha virt. eigenvalues --    1.15989   1.17108   1.17510   1.18162   1.18230
 Alpha virt. eigenvalues --    1.19059   1.19654   1.20234   1.20745   1.21092
 Alpha virt. eigenvalues --    1.22018   1.22534   1.22842   1.24307   1.25023
 Alpha virt. eigenvalues --    1.25294   1.25657   1.26144   1.26697   1.26957
 Alpha virt. eigenvalues --    1.28527   1.29354   1.29661   1.30628   1.31276
 Alpha virt. eigenvalues --    1.31602   1.31865   1.32216   1.32755   1.34028
 Alpha virt. eigenvalues --    1.34148   1.35350   1.35977   1.36736   1.37106
 Alpha virt. eigenvalues --    1.37657   1.38430   1.40027   1.40617   1.41282
 Alpha virt. eigenvalues --    1.41903   1.42738   1.43486   1.44563   1.44898
 Alpha virt. eigenvalues --    1.45505   1.45695   1.46400   1.46951   1.47478
 Alpha virt. eigenvalues --    1.47838   1.49543   1.49696   1.50719   1.51415
 Alpha virt. eigenvalues --    1.51860   1.52004   1.52578   1.53232   1.53569
 Alpha virt. eigenvalues --    1.54788   1.54920   1.55339   1.55719   1.56465
 Alpha virt. eigenvalues --    1.56867   1.57754   1.57800   1.58270   1.58659
 Alpha virt. eigenvalues --    1.59416   1.59829   1.60011   1.60350   1.60923
 Alpha virt. eigenvalues --    1.61225   1.61611   1.62853   1.63208   1.63443
 Alpha virt. eigenvalues --    1.63975   1.64413   1.64954   1.65582   1.66704
 Alpha virt. eigenvalues --    1.66927   1.67616   1.68013   1.68287   1.69052
 Alpha virt. eigenvalues --    1.69618   1.70433   1.71107   1.71694   1.72130
 Alpha virt. eigenvalues --    1.72680   1.72777   1.73389   1.74074   1.74416
 Alpha virt. eigenvalues --    1.75235   1.75500   1.76039   1.76909   1.77016
 Alpha virt. eigenvalues --    1.78076   1.78473   1.79771   1.80453   1.80749
 Alpha virt. eigenvalues --    1.81846   1.82215   1.82806   1.83827   1.84881
 Alpha virt. eigenvalues --    1.85352   1.86499   1.86912   1.87930   1.88658
 Alpha virt. eigenvalues --    1.89055   1.89943   1.90162   1.91335   1.91942
 Alpha virt. eigenvalues --    1.92179   1.92543   1.93354   1.94356   1.94459
 Alpha virt. eigenvalues --    1.94974   1.95438   1.95992   1.96371   1.97072
 Alpha virt. eigenvalues --    1.98094   1.99859   1.99917   2.00155   2.00861
 Alpha virt. eigenvalues --    2.01513   2.02029   2.02787   2.03084   2.04348
 Alpha virt. eigenvalues --    2.04627   2.04988   2.06508   2.06951   2.08340
 Alpha virt. eigenvalues --    2.09158   2.09820   2.11064   2.11669   2.12647
 Alpha virt. eigenvalues --    2.13188   2.13423   2.13868   2.14405   2.15352
 Alpha virt. eigenvalues --    2.16371   2.16788   2.17272   2.18239   2.19661
 Alpha virt. eigenvalues --    2.19950   2.20961   2.22167   2.22897   2.23360
 Alpha virt. eigenvalues --    2.24636   2.26000   2.26164   2.27105   2.28891
 Alpha virt. eigenvalues --    2.29932   2.30315   2.32092   2.32644   2.33107
 Alpha virt. eigenvalues --    2.34268   2.35798   2.37243   2.37871   2.38532
 Alpha virt. eigenvalues --    2.39502   2.40290   2.43154   2.43987   2.44252
 Alpha virt. eigenvalues --    2.44775   2.46191   2.47096   2.47272   2.48915
 Alpha virt. eigenvalues --    2.49338   2.49995   2.50604   2.52872   2.53407
 Alpha virt. eigenvalues --    2.55168   2.56305   2.57419   2.57763   2.58638
 Alpha virt. eigenvalues --    2.59884   2.60728   2.61548   2.63066   2.64408
 Alpha virt. eigenvalues --    2.64944   2.65374   2.65747   2.66733   2.67392
 Alpha virt. eigenvalues --    2.68716   2.69359   2.69876   2.70464   2.71744
 Alpha virt. eigenvalues --    2.72731   2.73490   2.74220   2.74585   2.75073
 Alpha virt. eigenvalues --    2.75586   2.75718   2.76261   2.78098   2.79086
 Alpha virt. eigenvalues --    2.79405   2.80776   2.81259   2.82710   2.83067
 Alpha virt. eigenvalues --    2.83833   2.85021   2.85449   2.86017   2.86555
 Alpha virt. eigenvalues --    2.86708   2.87803   2.88717   2.88961   2.89713
 Alpha virt. eigenvalues --    2.90751   2.91279   2.92945   2.93501   2.94491
 Alpha virt. eigenvalues --    2.95347   2.96210   2.97064   2.97280   2.98616
 Alpha virt. eigenvalues --    2.99559   3.00272   3.00749   3.01868   3.03884
 Alpha virt. eigenvalues --    3.04141   3.04769   3.05018   3.05687   3.06574
 Alpha virt. eigenvalues --    3.07292   3.07808   3.08196   3.09622   3.10523
 Alpha virt. eigenvalues --    3.10919   3.12445   3.13266   3.14430   3.15088
 Alpha virt. eigenvalues --    3.15905   3.17360   3.18053   3.18944   3.19301
 Alpha virt. eigenvalues --    3.20447   3.20955   3.21635   3.22327   3.23374
 Alpha virt. eigenvalues --    3.24163   3.24940   3.26446   3.27123   3.28093
 Alpha virt. eigenvalues --    3.29037   3.30381   3.30936   3.32501   3.34758
 Alpha virt. eigenvalues --    3.36396   3.36788   3.38589   3.39065   3.39605
 Alpha virt. eigenvalues --    3.40001   3.42249   3.42742   3.43504   3.44649
 Alpha virt. eigenvalues --    3.48144   3.49411   3.51470   3.54925   3.57679
 Alpha virt. eigenvalues --    3.58644   3.59955   3.63165   3.64717   3.66016
 Alpha virt. eigenvalues --    3.66866   3.68884   3.73329   3.73948   3.74585
 Alpha virt. eigenvalues --    3.77296   3.77600   3.78092   3.78990   3.79919
 Alpha virt. eigenvalues --    3.82286   3.84533   3.85006   3.87763   3.88310
 Alpha virt. eigenvalues --    3.89945   3.93818   3.95249   3.97483   3.98990
 Alpha virt. eigenvalues --    4.02425   4.03809   4.05114   4.06368   4.09906
 Alpha virt. eigenvalues --    4.11079   4.15249   4.17171   4.18309   4.20358
 Alpha virt. eigenvalues --    4.20928   4.21714   4.26178   4.27904   4.28871
 Alpha virt. eigenvalues --    4.33812   4.36327   4.39290   4.40937   4.58429
 Alpha virt. eigenvalues --    4.70403   4.81926   4.83155   4.83806   4.96229
 Alpha virt. eigenvalues --    5.01012   5.05267   5.07637   5.08864   5.13510
 Alpha virt. eigenvalues --    5.18749   5.20767   5.23029   5.24644   5.26413
 Alpha virt. eigenvalues --    5.27622   5.38092   5.40489   5.43298   5.46623
 Alpha virt. eigenvalues --    5.47900   5.64078   5.66080   5.75353   5.77480
 Alpha virt. eigenvalues --    5.81512   5.82106   5.85223   5.87435  23.56825
 Alpha virt. eigenvalues --   23.67934  23.69283  23.76054  23.81791  23.83899
 Alpha virt. eigenvalues --   23.84352  23.85758  23.87901  23.90678  23.90969
 Alpha virt. eigenvalues --   23.92172  23.93333  23.93913  23.95144  23.95911
 Alpha virt. eigenvalues --   24.00110  24.01823  24.06803  24.07210  24.13944
 Alpha virt. eigenvalues --   24.17373  35.57037  35.62694  49.93997  49.94834
 Alpha virt. eigenvalues --   49.95773  49.97162  49.98405  50.03216  50.03861
 Alpha virt. eigenvalues --   50.05456
          Condensed to atoms (all electrons):
 Mulliken charges:
               1
     1  O   -0.148803
     2  O   -0.158033
     3  O   -0.252321
     4  O   -0.131653
     5  O   -0.171710
     6  O   -0.209327
     7  O   -0.321325
     8  O   -0.377594
     9  N    0.169645
    10  N   -0.451001
    11  C   -0.430460
    12  C   -0.385886
    13  C   -0.831078
    14  C   -0.098048
    15  C   -0.370109
    16  C   -0.057828
    17  C    0.131728
    18  C    0.359196
    19  C    0.258724
    20  C    0.295334
    21  C   -0.835379
    22  C   -0.186887
    23  C    0.082508
    24  C    0.316435
    25  C   -0.930044
    26  C   -0.269761
    27  C   -0.337066
    28  C   -0.260704
    29  C    0.030353
    30  C    0.277674
    31  C   -0.323896
    32  C   -0.203590
    33  H    0.372365
    34  H    0.303522
    35  H    0.334744
    36  H    0.261130
    37  H    0.275985
    38  H    0.134658
    39  H    0.178552
    40  H    0.169933
    41  H    0.254461
    42  H    0.335152
    43  H    0.172454
    44  H    0.141446
    45  H    0.181493
    46  H    0.149953
    47  H    0.180169
    48  H    0.146391
    49  H    0.162841
    50  H    0.338899
    51  H    0.341373
    52  H    0.210701
    53  H    0.183791
    54  H    0.303644
    55  H    0.359049
    56  H    0.328200
 Sum of Mulliken charges =  -0.00000
 Mulliken charges with hydrogens summed into heavy atoms:
               1
     1  O    0.105658
     2  O    0.177119
     3  O   -0.252321
     4  O    0.207246
     5  O    0.169663
     6  O   -0.209327
     7  O    0.006874
     8  O   -0.377594
     9  N    0.169645
    10  N    0.211692
    11  C   -0.058095
    12  C   -0.082365
    13  C   -0.496334
    14  C   -0.098048
    15  C   -0.108979
    16  C    0.218157
    17  C    0.131728
    18  C    0.359196
    19  C    0.258724
    20  C    0.295334
    21  C   -0.835379
    22  C   -0.186887
    23  C    0.082508
    24  C    0.316435
    25  C   -0.446901
    26  C   -0.097307
    27  C    0.135826
    28  C    0.228697
    29  C    0.030353
    30  C    0.277674
    31  C   -0.113195
    32  C   -0.019799
 Electronic spatial extent (au):  <R**2>=          12158.5663
 Charge=             -0.0000 electrons
 Dipole moment (field-independent basis, Debye):
    X=             -5.4003    Y=             -3.5082    Z=             -0.7118  Tot=              6.4790
 Quadrupole moment (field-independent basis, Debye-Ang):
   XX=           -144.6420   YY=           -175.2850   ZZ=           -199.5055
   XY=            -18.9029   XZ=              5.3542   YZ=             -3.3083
 Traceless Quadrupole moment (field-independent basis, Debye-Ang):
   XX=             28.5022   YY=             -2.1408   ZZ=            -26.3613
   XY=            -18.9029   XZ=              5.3542   YZ=             -3.3083
 Octapole moment (field-independent basis, Debye-Ang**2):
  XXX=            -88.0094  YYY=            -42.0688  ZZZ=             25.3820  XYY=            -61.8467
  XXY=            108.4278  XXZ=            -43.8328  XZZ=              0.6765  YZZ=             61.1185
  YYZ=            -24.4959  XYZ=            -34.7612
 Hexadecapole moment (field-independent basis, Debye-Ang**3):
 XXXX=          -8864.6557 YYYY=          -3549.7615 ZZZZ=          -2627.5014 XXXY=           -553.0432
 XXXZ=            103.7530 YYYX=           -286.4530 YYYZ=            -84.2263 ZZZX=            113.4672
 ZZZY=             44.9020 XXYY=          -1830.3312 XXZZ=          -1886.2657 YYZZ=           -895.7600
 XXYZ=            -47.3767 YYXZ=           -146.2988 ZZXY=             93.2827
 N-N= 3.571629761742D+03 E-N=-1.080183575758D+04  KE= 1.557541768467D+03
 D1PCM: PCM CHGder 1st derivatives, ID1Alg=3 FixD1E=F DoIter=F DoCFld=F I1PDM=0.
 Calling FoFJK, ICntrl=      2127 FMM=F ISym2X=0 I1Cent= 0 IOpClX= 0 NMat=1 NMatS=1 NMatT=0.
 ***** Axes restored to original set *****
 -------------------------------------------------------------------
 Center     Atomic                   Forces (Hartrees/Bohr)
 Number     Number              X              Y              Z
 -------------------------------------------------------------------
      1        8           0.013985715   -0.010005019    0.019525579
      2        8          -0.015611179    0.024076704    0.007751167
      3        8           0.010339552    0.011844959    0.020409323
      4        8           0.017338426   -0.003057843   -0.007522192
      5        8           0.010600313    0.008155975    0.014179291
      6        8           0.005408830    0.002478433   -0.009157084
      7        8          -0.007030049    0.033077828    0.022791217
      8        8          -0.015921465    0.006072101   -0.006279154
      9        7           0.009878982    0.002488796    0.002595723
     10        7           0.029048848   -0.007230072   -0.003089852
     11        6          -0.002543609    0.001312743    0.001968644
     12        6          -0.003191652   -0.007640236    0.006994598
     13        6          -0.008048901    0.006503032   -0.000134720
     14        6           0.015649300   -0.013014623    0.002521201
     15        6           0.004162113    0.005309711    0.019516975
     16        6           0.002411517   -0.003868391    0.008912511
     17        6           0.010437655    0.002598636    0.016912438
     18        6          -0.033377162   -0.002340744   -0.045077846
     19        6          -0.019062211    0.010875614    0.002069800
     20        6           0.002981087   -0.006810450   -0.011537934
     21        6          -0.004346461    0.003867364   -0.009925175
     22        6          -0.014373063   -0.009754871   -0.020942039
     23        6           0.013471321   -0.004818454    0.001322479
     24        6          -0.005873170    0.018789460    0.002909590
     25        6          -0.006732996   -0.006933369    0.013016530
     26        6          -0.001036304    0.006009740    0.003390108
     27        6          -0.005161533    0.000598425    0.006044406
     28        6          -0.000725524    0.004548799   -0.004746512
     29        6           0.001964287   -0.019668197   -0.017148378
     30        6          -0.003768316    0.004962271   -0.003287769
     31        6          -0.002664958    0.003249403    0.000991099
     32        6           0.003995776   -0.002585404    0.003236231
     33        1          -0.002469378    0.007469397   -0.007748921
     34        1          -0.003229961    0.003998466   -0.007770179
     35        1           0.006455001   -0.003816904    0.010296005
     36        1          -0.010482882    0.004634364   -0.004709927
     37        1          -0.007127750    0.012810189   -0.005630453
     38        1          -0.005195836    0.001968830   -0.008158883
     39        1           0.009027362   -0.007488410   -0.001307117
     40        1           0.002850668    0.011270072    0.003349915
     41        1          -0.002279792    0.005789268   -0.023296027
     42        1           0.012879560   -0.020454652    0.001824718
     43        1           0.001926653    0.001442734    0.002352406
     44        1          -0.003715974    0.003917810    0.002645203
     45        1          -0.002650576   -0.007450735   -0.010539020
     46        1           0.007203848    0.001525396   -0.007795294
     47        1          -0.005135639   -0.011650672   -0.004348795
     48        1          -0.002029922    0.006338738   -0.000434454
     49        1           0.002751466   -0.007371278    0.007925393
     50        1           0.003822082   -0.018717336    0.012598766
     51        1           0.005235516   -0.022280936   -0.013688266
     52        1          -0.000432904   -0.000319392   -0.001150404
     53        1          -0.002053640    0.003245448    0.000273497
     54        1          -0.014598107    0.001905331   -0.000926811
     55        1          -0.003091905   -0.009461067    0.017905429
     56        1           0.010136943   -0.016396984    0.000122962
 -------------------------------------------------------------------
 Cartesian Forces:  Max     0.045077846 RMS     0.010762664

 GradGradGradGradGradGradGradGradGradGradGradGradGradGradGradGradGradGrad
 Berny optimization.
 FormGI is forming the generalized inverse of G from B-inverse, IUseBI=4.
 Internal  Forces:  Max     0.047591748 RMS     0.008052496
 Search for a local minimum.
 Step number   1 out of a maximum of  336
 All quantities printed in internal units (Hartrees-Bohrs-Radians)
 Mixed Optimization -- RFO/linear search
 Second derivative matrix not updated -- first step.
 ITU=  0
     Eigenvalues ---    0.00230   0.00447   0.00491   0.00535   0.00630
     Eigenvalues ---    0.00658   0.00667   0.00668   0.00720   0.00758
     Eigenvalues ---    0.00822   0.01128   0.01148   0.01212   0.01276
     Eigenvalues ---    0.01377   0.01535   0.01559   0.01561   0.01582
     Eigenvalues ---    0.01583   0.01779   0.01906   0.01930   0.02025
     Eigenvalues ---    0.02116   0.02141   0.02183   0.02229   0.02251
     Eigenvalues ---    0.02256   0.02264   0.02266   0.02391   0.02732
     Eigenvalues ---    0.02796   0.03213   0.03785   0.04105   0.04243
     Eigenvalues ---    0.04448   0.04588   0.04862   0.05123   0.05337
     Eigenvalues ---    0.05375   0.05552   0.05858   0.05955   0.06234
     Eigenvalues ---    0.06557   0.06672   0.06797   0.07000   0.07064
     Eigenvalues ---    0.07296   0.07313   0.07347   0.08600   0.09470
     Eigenvalues ---    0.10741   0.11685   0.14109   0.14613   0.15615
     Eigenvalues ---    0.15997   0.15999   0.16000   0.16000   0.16000
     Eigenvalues ---    0.16000   0.16000   0.16000   0.16000   0.16000
     Eigenvalues ---    0.16000   0.16000   0.16000   0.16000   0.16000
     Eigenvalues ---    0.16000   0.16000   0.16000   0.16000   0.16331
     Eigenvalues ---    0.17028   0.17113   0.18110   0.19317   0.21377
     Eigenvalues ---    0.22094   0.22942   0.23305   0.23533   0.24457
     Eigenvalues ---    0.24718   0.24760   0.24865   0.24965   0.24981
     Eigenvalues ---    0.24991   0.24996   0.24999   0.24999   0.25000
     Eigenvalues ---    0.26418   0.26729   0.26825   0.27346   0.28123
     Eigenvalues ---    0.28723   0.29373   0.30073   0.30562   0.30616
     Eigenvalues ---    0.31705   0.32007   0.32050   0.32101   0.32304
     Eigenvalues ---    0.32307   0.32330   0.32394   0.32396   0.32396
     Eigenvalues ---    0.32405   0.32433   0.32491   0.32614   0.32629
     Eigenvalues ---    0.33001   0.33021   0.33195   0.34860   0.34867
     Eigenvalues ---    0.35619   0.35632   0.35694   0.38835   0.40011
     Eigenvalues ---    0.42619   0.43023   0.43491   0.44023   0.44288
     Eigenvalues ---    0.45038   0.45903   0.47126   0.48227   0.48903
     Eigenvalues ---    0.48999   0.50088   0.53416   0.53614   0.53647
     Eigenvalues ---    0.53804   0.54499   0.55272   0.55642   0.94129
     Eigenvalues ---    0.94259   0.95011
 RFO step:  Lambda=-7.20018871D-02 EMin= 2.30000000D-03
 Linear search not attempted -- first point.
 Maximum step size (   0.300) exceeded in Quadratic search.
    -- Step size scaled by   0.645
 Iteration  1 RMS(Cart)=  0.06372503 RMS(Int)=  0.00263706
 Iteration  2 RMS(Cart)=  0.00332223 RMS(Int)=  0.00025809
 Iteration  3 RMS(Cart)=  0.00000880 RMS(Int)=  0.00025803
 Iteration  4 RMS(Cart)=  0.00000000 RMS(Int)=  0.00025803
 Variable       Old X    -DE/DX   Delta X   Delta X   Delta X     New X
                                 (Linear)    (Quad)   (Total)
    R1        2.66112   0.01134   0.00000   0.01422   0.01422   2.67534
    R2        1.87689  -0.02404   0.00000  -0.02766  -0.02766   1.84923
    R3        2.66427   0.00912   0.00000   0.01149   0.01149   2.67576
    R4        1.87589  -0.02394   0.00000  -0.02750  -0.02750   1.84839
    R5        2.31086   0.00526   0.00000   0.00335   0.00335   2.31421
    R6        2.56354  -0.03069   0.00000  -0.03255  -0.03255   2.53099
    R7        1.82280   0.00264   0.00000   0.00276   0.00276   1.82556
    R8        2.56384  -0.02101   0.00000  -0.02230  -0.02230   2.54154
    R9        1.81591   0.00194   0.00000   0.00201   0.00201   1.81792
   R10        2.30706   0.00919   0.00000   0.00580   0.00580   2.31286
   R11        2.54566   0.00578   0.00000   0.00593   0.00593   2.55159
   R12        1.82911  -0.00618   0.00000  -0.00653  -0.00653   1.82257
   R13        2.31030   0.01777   0.00000   0.01131   0.01131   2.32160
   R14        2.82350  -0.01013   0.00000  -0.01627  -0.01627   2.80723
   R15        2.79191  -0.00942   0.00000  -0.01446  -0.01446   2.77745
   R16        2.79203  -0.00717   0.00000  -0.01100  -0.01100   2.78103
   R17        2.56567  -0.00179   0.00000  -0.00191  -0.00191   2.56376
   R18        1.93768  -0.01406   0.00000  -0.01790  -0.01790   1.91978
   R19        1.94842  -0.01963   0.00000  -0.02543  -0.02543   1.92299
   R20        2.98066  -0.00806   0.00000  -0.01485  -0.01482   2.96584
   R21        2.99089  -0.01330   0.00000  -0.02803  -0.02821   2.96268
   R22        2.92461   0.00008   0.00000   0.00163   0.00161   2.92622
   R23        2.09735  -0.01025   0.00000  -0.01661  -0.01661   2.08074
   R24        2.89622   0.00624   0.00000   0.01084   0.01047   2.90670
   R25        2.92725  -0.00515   0.00000  -0.00838  -0.00835   2.91889
   R26        2.84616   0.00332   0.00000   0.00787   0.00821   2.85437
   R27        2.10660  -0.00876   0.00000  -0.01439  -0.01439   2.09221
   R28        2.10130  -0.01185   0.00000  -0.01932  -0.01932   2.08198
   R29        2.91438   0.00625   0.00000   0.01107   0.01127   2.92565
   R30        2.94402  -0.01037   0.00000  -0.01908  -0.01901   2.92501
   R31        2.85236   0.00879   0.00000   0.01321   0.01316   2.86552
   R32        2.10752  -0.01047   0.00000  -0.01722  -0.01722   2.09030
   R33        2.83379   0.00532   0.00000   0.00853   0.00851   2.84230
   R34        2.91870   0.00521   0.00000   0.00952   0.00952   2.92823
   R35        2.10244  -0.01315   0.00000  -0.02147  -0.02147   2.08097
   R36        2.80291  -0.00515   0.00000  -0.00870  -0.00865   2.79426
   R37        2.57833   0.00425   0.00000   0.00485   0.00483   2.58316
   R38        2.59373   0.00363   0.00000   0.00441   0.00439   2.59812
   R39        2.67676  -0.00653   0.00000  -0.01031  -0.01028   2.66648
   R40        2.65043  -0.00797   0.00000  -0.00975  -0.00976   2.64066
   R41        2.82353  -0.00818   0.00000  -0.01326  -0.01335   2.81018
   R42        2.86701  -0.02709   0.00000  -0.04756  -0.04754   2.81947
   R43        2.86752  -0.00518   0.00000  -0.00884  -0.00884   2.85867
   R44        2.69409  -0.01530   0.00000  -0.02102  -0.02101   2.67308
   R45        2.09955  -0.00983   0.00000  -0.01599  -0.01599   2.08356
   R46        2.10059  -0.01175   0.00000  -0.01913  -0.01913   2.08146
   R47        2.10110  -0.01205   0.00000  -0.01964  -0.01964   2.08145
   R48        2.62453   0.00562   0.00000   0.00735   0.00733   2.63186
   R49        2.04682   0.00041   0.00000   0.00062   0.00062   2.04744
   R50        2.10286  -0.00557   0.00000  -0.00910  -0.00910   2.09377
   R51        2.10125  -0.01239   0.00000  -0.02020  -0.02020   2.08105
   R52        2.09014  -0.01017   0.00000  -0.01633  -0.01633   2.07381
   R53        2.10125  -0.01279   0.00000  -0.02085  -0.02085   2.08040
   R54        2.10291  -0.00549   0.00000  -0.00898  -0.00898   2.09393
   R55        2.09708  -0.01081   0.00000  -0.01751  -0.01751   2.07957
   R56        2.65442  -0.00622   0.00000  -0.00777  -0.00776   2.64666
   R57        2.62658   0.00007   0.00000   0.00074   0.00073   2.62732
   R58        2.04562   0.00097   0.00000   0.00146   0.00146   2.04709
   R59        2.04660   0.00093   0.00000   0.00140   0.00140   2.04801
    A1        1.88623   0.00362   0.00000   0.01008   0.01008   1.89631
    A2        1.90381   0.00108   0.00000   0.00300   0.00300   1.90681
    A3        2.17277  -0.04035   0.00000  -0.11226  -0.11226   2.06051
    A4        2.20946  -0.04759   0.00000  -0.13241  -0.13241   2.07705
    A5        2.14418  -0.03340   0.00000  -0.09291  -0.09291   2.05127
    A6        1.94919  -0.00183   0.00000  -0.00538  -0.00535   1.94384
    A7        1.95065  -0.00312   0.00000  -0.00892  -0.00890   1.94174
    A8        1.88512   0.00433   0.00000   0.01088   0.01085   1.89598
    A9        2.15479  -0.00023   0.00000  -0.00058  -0.00060   2.15420
   A10        2.09038  -0.00553   0.00000  -0.01530  -0.01532   2.07506
   A11        2.03740   0.00581   0.00000   0.01624   0.01623   2.05363
   A12        1.98841   0.00167   0.00000   0.00240   0.00209   1.99050
   A13        1.92997  -0.00348   0.00000  -0.00704  -0.00702   1.92294
   A14        1.82647   0.00036   0.00000  -0.00159  -0.00136   1.82512
   A15        1.92343   0.00187   0.00000   0.00669   0.00682   1.93025
   A16        1.87678  -0.00296   0.00000  -0.00898  -0.00895   1.86784
   A17        1.91481   0.00256   0.00000   0.00840   0.00831   1.92313
   A18        2.06330  -0.00356   0.00000  -0.01066  -0.01052   2.05277
   A19        1.87340   0.00102   0.00000   0.00601   0.00633   1.87973
   A20        1.83837   0.00106   0.00000   0.00050   0.00019   1.83856
   A21        1.96231   0.00090   0.00000   0.00042   0.00019   1.96250
   A22        1.81316   0.00154   0.00000   0.00674   0.00680   1.81996
   A23        1.90400  -0.00086   0.00000  -0.00292  -0.00292   1.90108
   A24        1.92497  -0.00175   0.00000  -0.00525  -0.00524   1.91973
   A25        1.92966   0.00679   0.00000   0.02144   0.02156   1.95122
   A26        1.87520  -0.00316   0.00000  -0.01434  -0.01448   1.86071
   A27        1.88584  -0.00169   0.00000  -0.00152  -0.00187   1.88397
   A28        1.95535   0.00013   0.00000  -0.00201  -0.00193   1.95341
   A29        1.89299  -0.00009   0.00000   0.00245   0.00260   1.89559
[...]
 .00003021,-0.00008284,-0.00004037,-0.00028227,0.00170091,0.00127536,-0
 .00057226,0.15128893,0.01670387,0.24965609,-0.00003011,-0.00007371,0.0
 0000630,-0.00006070,0.00000183,0.00008809,-0.00003846,-0.00003862,0.00
 002336,-0.00023141,0.00016420,0.00017618,-0.00003612,0.00002889,-0.000
 02272,-0.00599246,0.00159475,0.00228332,-0.00000676,0.00001432,-0.0000
 1205,0.00568446,0.00188082,0.00141690,0.00000680,-0.00022616,0.0003248
 4,-0.12748065,0.19385415,0.03268048,0.00016733,-0.00002618,0.00012064,
 0.00001129,-0.00003643,-0.00001262,-0.00001944,0.00008632,0.00002622,0
 .00020352,0.00003991,0.00000079,-0.00014496,0.00084523,0.00057573,-0.0
 0001611,0.00001193,0.00000980,-0.00002010,-0.00005135,-0.00002414,0.00
 003102,0.00010806,-0.00002459,-0.00037107,0.00013847,-0.00066020,-0.00
 000078,-0.00000476,0.00001126,0.00471561,-0.00272277,-0.00173902,0.000
 04801,-0.00000974,0.00004872,-0.00140178,-0.00008742,0.00038135,-0.000
 00107,-0.00000522,-0.00001173,-0.00000297,-0.00000724,-0.00000923,-0.0
 0000470,-0.00000234,-0.00000869,0.00002933,0.00020711,-0.00005252,-0.0
 0010912,0.00005243,0.00001990,0.00001247,-0.00001276,0.00000775,-0.008
 85637,0.00164678,-0.00448743,0.00000540,-0.00000442,-0.00000280,-0.000
 00207,0.00000173,-0.00000211,-0.00009457,-0.00006078,0.00004792,-0.000
 00288,0.00000482,-0.00000015,0.00002503,0.00001311,0.00001558,0.000004
 50,0.00007117,-0.00004211,0.00000258,0.00000210,0.00000137,0.00000063,
 0.00000061,-0.00000069,-0.00000053,0.00000101,0.00000063,-0.00000320,-
 0.00000427,0.00000284,0.00000095,0.00002374,-0.00000279,0.00001308,0.0
 0000232,-0.00000650,-0.00000035,-0.00000049,0.00000059,0.00001970,-0.0
 0003542,-0.00000305,0.00003062,-0.00001470,0.00007089,-0.00001095,-0.0
 0001713,0.00000272,0.00003184,0.00000614,0.00004195,0.00001971,-0.0000
 2667,-0.00000972,-0.00000789,-0.00006557,0.00000892,0.00002187,0.00002
 869,-0.00004874,0.00000131,0.00000058,0.00000997,-0.00000062,-0.000000
 59,-0.00000022,-0.00000180,-0.00000114,-0.00000079,0.13093494,0.000020
 46,0.00011617,-0.00002214,0.00005025,-0.00002538,0.00001050,0.00006995
 ,-0.00000011,-0.00002428,0.00055374,-0.00037623,-0.00011178,0.00005197
 ,-0.00003227,0.00002111,0.00268614,-0.00633466,-0.00544123,0.00001671,
 -0.00001459,0.00001129,0.00166440,0.00792303,0.00224841,-0.00004262,0.
 00012094,-0.00011741,0.17646907,-0.31931408,0.00350277,-0.00033609,0.0
 0011258,-0.00046723,-0.00001744,0.00004628,0.00001119,0.00002141,-0.00
 016440,0.00001180,-0.00031941,0.00012045,0.00014491,0.00149093,-0.0000
 4168,-0.00086294,0.00002438,-0.00001951,-0.00001122,0.00001525,0.00005
 084,0.00001211,-0.00005272,-0.00008777,0.00003353,-0.00007328,-0.00072
 056,0.00067531,0.00000129,0.00000343,-0.00000950,-0.00595964,0.0048765
 4,0.00559496,-0.00006364,0.00001090,-0.00004340,0.00028347,-0.00157490
 ,-0.00035463,0.00000633,0.00000806,0.00000668,0.00000083,0.00001023,0.
 00001278,0.00000904,0.00000002,0.00001021,-0.00001511,-0.00019603,0.00
 007964,0.00009307,-0.00007345,-0.00006692,-0.00002198,0.00001435,-0.00
 000971,0.00373296,-0.01108899,-0.01194983,-0.00000350,0.00000632,-0.00
 000066,0.00000335,-0.00000137,-0.00000055,0.00021902,0.00011523,-0.000
 10107,0.00000255,-0.00000493,-0.00000242,-0.00004006,-0.00003216,0.000
 00111,0.00002659,-0.00013109,0.00014760,-0.00000431,-0.00000456,0.0000
 0171,-0.00000103,-0.00000138,-0.00000119,0.00000162,-0.00000157,-0.000
 00146,0.00000468,0.00000672,-0.00000343,0.00000238,-0.00003864,0.00000
 299,-0.00000485,-0.00000833,0.00001398,-0.00000115,-0.00000019,-0.0000
 0008,-0.00001847,0.00004176,0.00000744,-0.00003390,0.00000820,-0.00006
 699,0.00001029,0.00002227,0.00000436,-0.00003211,-0.00001435,-0.000047
 83,-0.00001570,0.00002121,0.00002608,-0.00006661,0.00005550,-0.0000479
 2,-0.00000416,-0.00004167,0.00008696,-0.00000837,-0.00000149,-0.000007
 09,-0.00000027,0.00000019,0.00000169,0.00000026,-0.00000039,0.00000155
 ,-0.18540206,0.33369045,-0.00000443,-0.00023004,0.00002523,-0.00011062
 ,0.00003841,0.00043176,-0.00021277,-0.00010127,0.00009692,-0.00162257,
 0.00120203,0.00050910,-0.00017600,0.00010852,-0.00008248,-0.00119346,-
 0.00091432,0.00631724,-0.00004669,0.00003791,-0.00004128,0.00399706,-0
 .00379287,-0.00762064,0.00014118,-0.00024939,0.00038623,0.02464422,0.0
 0627218,-0.06409759,0.00025657,0.00003567,0.00022386,0.00001034,-0.000
 04917,-0.00002107,-0.00003725,0.00026113,0.00002884,-0.00002930,0.0000
 6531,-0.00038194,-0.00056832,0.00047253,0.00076869,-0.00003196,0.00003
 579,0.00002678,-0.00024298,-0.00020352,-0.00020976,0.00042385,0.000281
 23,0.00016836,0.00150261,-0.00102870,-0.00113282,-0.00002321,0.0000099
 4,0.00001593,0.00545465,-0.00223534,-0.01069494,0.00030103,-0.00004437
 ,0.00018702,-0.00274339,0.00161679,-0.00002838,-0.00002305,-0.00004886
 ,-0.00005082,-0.00000052,-0.00001552,-0.00002437,-0.00001666,-0.000006
 89,-0.00003085,0.00002620,0.00030380,-0.00014605,-0.00017615,0.0001025
 5,0.00006047,0.00006127,-0.00004608,0.00004622,0.01305829,-0.03031573,
 0.01092734,0.00001110,-0.00001821,-0.00000663,-0.00000150,-0.00000191,
 -0.00000683,-0.00016182,-0.00013540,0.00011034,0.00000237,0.00000817,0
 .00001522,0.00004774,0.00005798,0.00002317,0.00000310,0.00014116,0.000
 02989,0.00000693,-0.00000029,-0.00000010,0.00000157,0.00000143,0.00000
 287,-0.00000109,0.00000322,0.00000138,-0.00000831,-0.00001288,0.000006
 16,-0.00000547,0.00005668,-0.00000832,0.00005072,-0.00001095,-0.000052
 97,0.00000260,-0.00000340,0.00000078,0.00004454,-0.00007714,0.00000296
 ,0.00005512,-0.00001519,0.00010559,-0.00001884,-0.00003081,-0.00000347
 ,0.00006015,0.00001180,0.00008450,0.00004692,-0.00004646,-0.00002320,-
 0.00001049,-0.00012017,0.00002421,0.00018972,0.00016558,-0.00030941,0.
 00002897,0.00000969,0.00003759,-0.00000089,-0.00000270,-0.00000274,-0.
 00000297,-0.00000148,-0.00000399,-0.02755766,0.01207912,0.05939923,0.0
 0002073,-0.00004781,-0.00000316,0.00002919,0.00003771,-0.00000206,-0.0
 0008073,-0.00003603,0.00003006,-0.00087382,0.00071040,0.00040185,-0.00
 007206,0.00005170,-0.00003985,-0.00026934,0.00164846,-0.00271987,-0.00
 002027,0.00002128,-0.00002000,-0.00366208,0.00056033,-0.00234788,0.000
 07609,-0.00001722,-0.00001426,-0.03056501,-0.01962312,0.06710111,-0.00
 001629,0.00001323,0.00000240,-0.00000845,0.00000618,-0.00000507,0.0000
 0273,0.00004419,0.00003635,-0.00033471,-0.00024563,-0.00037571,-0.0000
 4687,-0.00021997,-0.00020107,-0.00000201,0.00000699,0.00000770,-0.0001
 5091,-0.00007648,-0.00012830,0.00025255,0.00006191,0.00018633,0.001595
 60,-0.00036478,-0.00062021,-0.00001201,0.00000958,-0.00000159,-0.00162
 192,0.00052463,0.00174293,0.00015309,-0.00003228,0.00007898,0.00364679
 ,0.00116340,0.00389663,-0.00001784,-0.00002642,-0.00002147,0.00000128,
 -0.00000138,-0.00000498,-0.00000401,-0.00000286,-0.00001057,0.00000263
 ,-0.00002039,-0.00003071,-0.00001365,-0.00001520,0.00000942,0.00002880
 ,-0.00002345,0.00002254,0.00076357,-0.01159453,0.00276871,0.00000341,-
 0.00000840,-0.00000282,0.00000088,-0.00000078,-0.00000259,0.00001217,-
 0.00000622,0.00000472,0.00000677,0.00000114,0.00000691,-0.00000336,0.0
 0000146,-0.00000171,0.00003526,-0.00004263,0.00002649,0.00000096,-0.00
 000338,0.00000049,0.00000049,0.00000014,0.00000123,0.00000031,0.000000
 67,-0.00000003,-0.00000125,-0.00000239,0.00000103,-0.00000210,0.000007
 41,-0.00000217,0.00000621,-0.00000088,-0.00004072,0.00000088,-0.000001
 26,0.00000002,0.00000881,-0.00000701,0.00001225,0.00000182,0.00000332,
 -0.00000331,-0.00000064,0.00000159,-0.00000434,0.00000476,0.00000264,-
 0.00000350,0.00001284,-0.00000272,-0.00000428,0.00000199,0.00000214,-0
 .00000469,0.00016473,0.00006541,-0.00015511,0.00000844,-0.00000046,0.0
 0002104,-0.00000029,-0.00000105,-0.00000044,-0.00000130,-0.00000112,-0
 .00000181,0.00293045,0.00500940,-0.01540560,0.02800562,-0.00000902,-0.
 00000505,0.00000579,-0.00000500,-0.00000991,-0.00007716,0.00000830,-0.
 00000189,0.00000301,-0.00015162,0.00017288,0.00012379,0.00000607,-0.00
 000203,0.00000051,0.00090272,-0.00079677,0.00232431,0.00000214,0.00000
 067,0.00000029,-0.00124671,-0.00124479,0.00058447,-0.00000652,-0.00001
 490,0.00000626,-0.01314042,-0.24327631,0.20070299,0.00008770,-0.000027
 91,0.00006571,0.00000384,-0.00000567,0.00000179,0.00000517,0.00000644,
 0.00000031,0.00013622,-0.00002045,-0.00006619,-0.00017264,-0.00002569,
 0.00017990,-0.00000390,0.00000113,-0.00000038,0.00001860,0.00000450,0.
 00001672,-0.00003762,0.00001380,-0.00003274,0.00020788,0.00063349,-0.0
 0061882,0.00000051,-0.00000304,0.00000244,0.00106917,-0.00099623,-0.00
 117767,-0.00001519,0.00000083,-0.00000303,0.00161525,0.00046697,-0.002
 14166,0.00000197,0.00000281,0.00000217,-0.00000044,-0.00000051,-0.0000
 0059,-0.00000078,0.00000021,-0.00000014,-0.00000627,0.00003047,-0.0000
 0645,-0.00000382,-0.00000132,0.00001138,-0.00000307,0.00000021,-0.0000
 0139,0.00019602,0.01414280,-0.01067388,0.00000059,-0.00000038,0.000000
 21,0.00000004,0.00000106,-0.00000046,-0.00003423,-0.00000875,0.0000168
 0,-0.00000238,0.00000036,-0.00000155,0.00000480,0.00000293,-0.00000191
 ,-0.00001154,0.00003002,-0.00003984,0.00000027,0.00000210,-0.00000010,
 0.00000021,0.,-0.00000039,-0.00000015,-0.00000019,0.00000019,-0.000000
 34,-0.00000033,0.00000032,0.00000131,0.00000192,-0.00000035,-0.0000050
 7,0.00000609,-0.00000086,-0.00000049,-0.00000006,-0.00000006,0.0000021
 0,-0.00000375,-0.00000357,0.00000231,-0.00000119,0.00000983,-0.0000001
 4,-0.00000216,0.00000179,0.00000166,0.00000190,0.00000571,-0.00000007,
 0.00000037,-0.00000504,0.00001595,-0.00000574,0.00000798,-0.00001294,-
 0.00000617,-0.00003630,-0.00000301,-0.00000124,0.00000029,-0.00000016,
 -0.00000011,0.00000016,-0.00000034,-0.00000019,0.00000015,-0.01189073,
 -0.00703724,0.01638636,0.02247477,0.23797630,-0.00000332,-0.00000637,0
 .00000088,-0.00006059,-0.00006381,-0.00002072,0.00001709,-0.00008321,0
 .00000185,-0.00037726,-0.00002820,0.00012340,0.00000563,-0.00000593,0.
 00000488,0.00030126,-0.00005571,0.00131492,0.00000134,-0.00000113,0.00
 000043,-0.00415536,0.00083337,0.00560570,0.00000190,-0.00000894,0.0000
 1561,0.05332731,0.18752680,-0.25342069,0.00002751,-0.00005676,0.000061
 90,0.00000614,-0.00000755,0.00000328,0.00000152,0.00001193,-0.00000722
 ,0.00057265,0.00014711,0.00000128,-0.00015982,-0.00003688,0.00002169,-
 0.00000206,0.00000107,0.00000048,0.00004605,0.00000131,0.00002947,-0.0
 0014102,0.00009811,-0.00007948,-0.00036659,0.00077302,-0.00107801,0.00
 000205,-0.00000097,0.00000099,0.00056139,-0.00053440,-0.00019269,-0.00
 002284,0.00001193,-0.00000126,0.00339060,-0.00296465,-0.00224238,0.000
 00612,0.00000355,0.00000235,-0.00000010,-0.00000187,-0.00000053,0.0000
 0003,-0.00000026,0.00000057,0.00000449,0.00000519,-0.00001357,-0.00000
 404,0.00002013,-0.00001155,-0.00000226,0.00000180,-0.00000047,0.004816
 35,0.02497474,-0.02598291,-0.00000056,0.00000008,0.00000077,0.00000063
 ,0.00000150,-0.00000039,-0.00002206,-0.00000671,0.00000946,-0.00000275
 ,-0.00000107,-0.00000143,0.00000516,0.00000474,0.00000378,-0.00001796,
 0.00001106,0.00000337,0.00000034,0.00000082,-0.00000023,0.00000015,0.0
 0000091,-0.00000041,0.00000021,0.00000013,-0.00000006,-0.00000032,-0.0
 0000020,0.00000012,0.00000040,0.00000198,0.00000059,0.00000537,0.00000
 108,-0.00000149,0.00000015,0.00000056,-0.00000009,0.00000164,-0.000004
 01,0.00000266,0.00000135,-0.00000113,0.00000203,-0.00000136,-0.0000017
 0,0.00000014,0.00000140,-0.00000090,0.00000433,0.00000084,-0.00000374,
 -0.00000061,-0.00000089,-0.00000864,-0.00000236,0.00008154,0.00000893,
 0.00001719,0.00000130,0.00000115,-0.00000240,0.00000006,0.00000007,-0.
 00000002,-0.00000037,-0.00000015,0.00000028,-0.00366510,-0.00498710,0.
 00491033,-0.05418246,-0.20557118,0.27091566,0.00009940,-0.00003703,0.0
 0000846,0.00006140,0.00005370,0.00007301,-0.00015607,0.00040790,0.0001
 0040,0.00004502,0.00003437,-0.00004513,0.00247345,0.00105311,0.0028341
 2,0.00003162,-0.00001219,-0.00003678,-0.15191682,-0.01858236,-0.208087
 71,-0.00000294,0.00003277,-0.00001278,0.00001736,0.00000496,-0.0000004
 1,0.00000619,0.00001349,-0.00001756,-0.00000646,0.00001365,-0.00002112
 ,0.00007152,0.00000130,0.00004846,-0.00009346,-0.00002697,0.00003298,-
 0.00004931,-0.00001091,-0.00003014,-0.00001398,-0.00000869,0.00000431,
 -0.00023718,0.00021224,0.00015293,0.00034061,0.00038785,0.00057609,0.0
 0008151,-0.00068686,-0.00024591,-0.00001447,-0.00003314,0.00007216,0.0
 0062510,-0.00045479,-0.00167709,-0.00005104,0.00003019,0.00002565,-0.0
 0119186,0.00034629,-0.00022484,0.00003346,0.00001838,-0.00003829,0.000
 10047,0.00393432,0.00076649,0.00007628,0.00001619,0.00003803,0.0005358
 4,-0.00000350,0.00071731,-0.00000347,0.00000820,-0.00000602,-0.0000070
 1,0.00000019,0.00000913,-0.01915614,-0.00315064,-0.02277677,-0.0000006
 0,-0.00006010,0.00003138,-0.00095062,0.00007071,-0.00057572,0.00224532
 ,-0.00330624,0.00084104,0.00000179,-0.00000676,0.00000032,0.00004382,-
 0.00001912,0.00000830,-0.00000798,-0.00000373,-0.00000121,0.00000858,0
 .00000187,0.00000143,-0.00004179,-0.00000644,-0.00007197,-0.00000528,-
 0.00001401,0.00003595,0.00000555,0.00000948,0.00000646,0.00000478,0.00
 000335,-0.00001302,-0.00001553,0.00000687,-0.00000646,-0.00002566,-0.0
 0002079,-0.00003512,0.00002912,-0.00000930,0.00009127,0.00000271,-0.00
 000308,-0.00000015,0.00000317,0.00000180,0.00000169,-0.00000128,-0.000
 00034,-0.00000408,0.00000396,0.00000189,0.00000096,0.00000373,-0.00000
 213,-0.00000077,-0.00000034,-0.00000187,-0.00000126,-0.00004714,-0.000
 08996,0.00004450,-0.00177029,-0.00350691,-0.00366629,0.00017235,-0.000
 18638,-0.00000421,0.00000815,0.00077633,0.00078125,-0.00000245,-0.0000
 0329,0.00000515,0.00000106,-0.00000095,-0.00000087,0.16863585,-0.00010
 579,0.00003595,-0.00000151,-0.00006393,-0.00005494,-0.00004836,0.00002
 022,-0.00037462,-0.00013067,-0.00004042,-0.00002418,0.00004435,-0.0022
 3545,-0.00017455,-0.00430810,-0.00002062,0.00001186,0.00003070,-0.0458
 0176,-0.05318217,-0.10433805,0.00000290,-0.00002425,0.00001462,-0.0000
 1695,-0.00000445,0.00000106,0.00000245,-0.00000631,0.00002583,0.000008
 36,-0.00001327,0.00001431,-0.00011668,-0.00010747,-0.00001235,0.000090
 93,0.00004763,-0.00003358,0.00004183,0.00001797,-0.00002033,0.00001505
 ,0.00000731,-0.00000246,0.00017036,-0.00026902,-0.00012665,-0.00064879
 ,-0.00008733,-0.00030363,0.00002322,0.00053022,0.00020696,0.00001827,0
 .00002053,-0.00007820,0.00064341,0.00099167,0.00101762,0.00002988,-0.0
 0002745,-0.00003131,0.00181762,-0.00192006,0.00043636,-0.00003182,-0.0
 0001315,0.00004132,0.00377588,-0.00405307,-0.00039468,-0.00004172,-0.0
 0002970,-0.00001117,-0.00022747,0.00000253,-0.00035237,0.00000284,-0.0
 0000620,0.00000508,0.00000408,0.00000219,-0.00000849,0.02064316,0.0031
 8146,0.03215921,-0.00000215,0.00004236,-0.00003923,-0.00007166,-0.0005
 5700,-0.00002221,0.00040969,0.00101851,0.00255969,0.00000181,0.0000042
 0,0.00000015,-0.00003497,0.00002272,-0.00001302,0.00000845,-0.00000045
 ,0.00000446,-0.00000711,-0.00000277,0.00000106,0.00003194,0.00000079,0
 .00008309,0.00000483,0.00000348,-0.00002807,0.00000259,-0.00000729,0.0
 0000655,-0.00000276,0.00000067,0.00000531,0.00001211,-0.00000561,0.000
 00750,0.00003134,0.00003166,0.00002965,-0.00008758,-0.00001044,-0.0001
 4353,-0.00000184,0.00000259,-0.00000046,-0.00000361,0.00000048,-0.0000
 0193,-0.00000040,-0.00000020,0.00000408,-0.00000308,-0.00000180,-0.000
 00030,-0.00000259,0.00000160,0.00000160,0.00000131,0.00000055,0.000000
 16,0.00004245,0.00008090,-0.00005029,-0.00052156,0.00261573,0.00498352
 ,-0.00008154,0.00013420,-0.00000900,-0.00048500,-0.00038227,-0.0014579
 5,-0.00000258,0.00000229,-0.00000594,-0.00000426,-0.00000025,0.0000001
 0,0.02280710,0.05252822,0.00009258,-0.00002587,0.00000360,0.00006228,0
 .00005314,0.00005449,-0.00027378,0.00048999,0.00007646,0.00004347,0.00
 002353,-0.00004623,-0.00045921,-0.00030238,-0.00012338,0.00002306,-0.0
 0001405,-0.00003330,-0.22949054,-0.07029751,-0.35168038,-0.00000198,0.
 00002247,-0.00001490,0.00001722,0.00000465,-0.00000135,-0.00000063,0.0
 0000619,-0.00002823,-0.00000251,0.00001108,-0.00001106,0.00004311,-0.0
 0001533,-0.00007464,-0.00010143,-0.00001909,0.00001116,-0.00005823,-0.
 00003815,0.00002073,-0.00001393,-0.00000575,0.00000289,0.00003055,0.00
 007290,0.00006734,0.00030979,0.00077355,0.00051834,0.00017916,-0.00077
 863,-0.00026651,-0.00002166,-0.00001594,0.00008173,-0.00031161,-0.0010
 8244,-0.00033019,-0.00003584,0.00003137,0.00003209,0.00061357,-0.00150
 283,-0.00096164,0.00003580,0.00001212,-0.00004097,0.00041415,0.0007188
 7,0.00367768,-0.00000233,0.00002038,-0.00001380,0.00059669,0.00006581,
 0.00085179,-0.00000352,0.00000654,-0.00000489,-0.00000464,-0.00000220,
 0.00000837,-0.00498241,0.00353651,-0.00717664,-0.00000031,-0.00004326,
 0.00004048,-0.00069964,0.00027834,-0.00142363,0.00437658,-0.00312062,0
 .00290524,-0.00000093,-0.00000337,0.00000016,0.00001909,-0.00000311,0.
 00000243,-0.00001232,0.00000516,-0.00000210,0.00000633,0.00000235,-0.0
 0000118,0.00000003,-0.00001049,-0.00001471,0.00000066,0.00000498,0.000
 02421,0.00000093,0.00000813,-0.00000610,0.00000520,0.00000730,-0.00000
 259,-0.00001583,0.00000324,-0.00000712,-0.00002849,-0.00002889,-0.0000
 2948,-0.00003671,-0.00001684,-0.00000387,0.00000201,-0.00000288,0.0000
 0035,0.00000316,-0.00000009,0.00000184,0.00000018,-0.00000042,-0.00000
 404,0.00000288,0.00000175,0.00000044,0.00000288,-0.00000176,-0.0000013
 1,-0.00000142,-0.00000064,-0.00000006,-0.00004854,-0.00008262,0.000049
 75,-0.00026742,0.00086123,-0.00102852,0.00008799,-0.00015392,0.0000209
 2,-0.00039145,0.00025964,0.00005284,0.00000235,-0.00000171,0.00000649,
 0.00000316,0.00000008,0.00000057,0.23029245,0.07028952,0.35482044\\0.0
 0000730,0.00001295,0.00000406,-0.00000276,0.00000741,0.00000423,-0.000
 00809,0.00000318,-0.00000236,-0.00000078,0.00000361,-0.00000453,0.0000
 1338,-0.00000955,0.00000840,-0.00000232,-0.00000536,-0.00000382,0.0000
 0387,-0.00000659,-0.00000585,0.00000707,-0.00000356,-0.00000335,0.0000
 0461,0.00001403,0.00000659,0.00000053,-0.00001569,0.00001069,-0.000005
 02,0.00000480,0.00000501,0.00000051,0.00000775,0.00000079,0.00000186,-
 0.00001451,0.00000066,-0.00000175,-0.00000333,-0.00001171,-0.00000384,
 -0.00000772,-0.00001084,-0.00000162,-0.00000283,-0.00000380,0.00001018
 ,0.00001054,0.00000403,0.00000128,-0.00001996,0.00000425,-0.00000788,-
 0.00000005,-0.00000680,0.00000240,0.00000492,0.00000240,0.00001110,0.0
 0001955,0.00001444,-0.00002611,0.00001104,0.00000068,0.00000845,-0.000
 01009,-0.00000313,0.00001071,-0.00001294,-0.00000073,-0.00000220,-0.00
 000211,0.00000451,0.00000049,-0.00000406,0.00000011,-0.00000716,-0.000
 00442,0.00000777,-0.00000648,0.00000055,-0.00000349,-0.00000567,0.0000
 0113,-0.00000503,-0.00000811,0.00000385,-0.00001824,0.00000326,-0.0000
 0069,0.00000237,0.00000410,-0.00000195,0.00000086,-0.00000276,0.,-0.00
 000262,-0.00000492,0.00000237,-0.00000149,-0.00000068,-0.00000241,0.00
 000153,-0.00000050,0.00000145,0.00000389,-0.00000042,0.00000239,0.0000
 0194,-0.00000096,0.00000189,-0.00000039,0.00000022,0.00000015,-0.00000
 056,0.00000050,0.00000175,0.00000165,-0.00000365,-0.00000174,-0.000000
 49,0.00000037,0.00000156,-0.00000078,0.00000238,-0.00000084,0.00000212
 ,-0.00000142,0.00000365,0.00000287,-0.00000083,0.00000101,-0.00000173,
 -0.00000173,0.00000588,-0.00000023,-0.00000281,0.00000128,0.00000056,-
 0.00000066,0.00000213,0.00000238,-0.00000094,-0.00000068,0.00000048,0.
 00000581,0.00000311,-0.00000673,0.00000330,-0.00000029,-0.00000661,0.0
 0000283,-0.00000302,0.00000132,0.00000349,-0.00000404,-0.00000186,-0.0
 0000305,0.00001161,0.00000102,0.00000224,-0.00000302,0.00000863,0.0000
 0290,-0.00000408,-0.00000305\\\@
 The archive entry for this job was punched.


 WE DON'T KNOW ONE MILLIONTH OF ONE PERCENT ABOUT
 ANYTHING.
                                     T. A. EDISON.
 Job cpu time:       3 days 17 hours 55 minutes 26.3 seconds.
 Elapsed time:       0 days  0 hours 49 minutes 51.1 seconds.
 File lengths (MBytes):  RWF=   3496 Int=      0 D2E=      0 Chk=     77 Scr=      1
 Normal termination of Gaussian 16 at Sat Mar  7 17:28:35 2026.
