SLURM_NODELIST orfoz247
NUMBER OF TASKS 1
NUMBER OF CORES=112
 Entering Gaussian System, Link 0=/arf/sw/apps/gaussian/avx/g16/g16
 Initial command:
 /arf/sw/apps/gaussian/avx/g16/l1.exe "/tmp/5347249/Gau-3081763.inp" -scrdir="/tmp/5347249/"
 Entering Link 1 = /arf/sw/apps/gaussian/avx/g16/l1.exe PID=   3081764.
  
 Copyright (c) 1988-2019, Gaussian, Inc.  All Rights Reserved.
  
 This is part of the Gaussian(R) 16 program.  It is based on
 the Gaussian(R) 09 system (copyright 2009, Gaussian, Inc.),
 the Gaussian(R) 03 system (copyright 2003, Gaussian, Inc.),
 the Gaussian(R) 98 system (copyright 1998, Gaussian, Inc.),
 the Gaussian(R) 94 system (copyright 1995, Gaussian, Inc.),
 the Gaussian 92(TM) system (copyright 1992, Gaussian, Inc.),
 the Gaussian 90(TM) system (copyright 1990, Gaussian, Inc.),
 the Gaussian 88(TM) system (copyright 1988, Gaussian, Inc.),
 the Gaussian 86(TM) system (copyright 1986, Carnegie Mellon
 University), and the Gaussian 82(TM) system (copyright 1983,
 Carnegie Mellon University). Gaussian is a federally registered
 trademark of Gaussian, Inc.
  
 This software contains proprietary and confidential information,
 including trade secrets, belonging to Gaussian, Inc.
  
 This software is provided under written license and may be
 used, copied, transmitted, or stored only in accord with that
 written license.
  
 The following legend is applicable only to US Government
 contracts under FAR:
  
                    RESTRICTED RIGHTS LEGEND
  
 Use, reproduction and disclosure by the US Government is
 subject to restrictions as set forth in subparagraphs (a)
 and (c) of the Commercial Computer Software - Restricted
 Rights clause in FAR 52.227-19.
  
 Gaussian, Inc.
 340 Quinnipiac St., Bldg. 40, Wallingford CT 06492
  
  
 ---------------------------------------------------------------
 Warning -- This program may not be used in any manner that
 competes with the business of Gaussian, Inc. or will provide
 assistance to any competitor of Gaussian, Inc.  The licensee
 of this program is prohibited from giving any competitor of
 Gaussian, Inc. access to this program.  By using this program,
 the user acknowledges that Gaussian, Inc. is engaged in the
 business of creating and licensing software in the field of
 computational chemistry and represents and warrants to the
 licensee that it is not a competitor of Gaussian, Inc. and that
 it will not use this program in any manner prohibited above.
 ---------------------------------------------------------------
  

 Cite this work as:
 Gaussian 16, Revision C.01,
 M. J. Frisch, G. W. Trucks, H. B. Schlegel, G. E. Scuseria, 
 M. A. Robb, J. R. Cheeseman, G. Scalmani, V. Barone, 
 G. A. Petersson, H. Nakatsuji, X. Li, M. Caricato, A. V. Marenich, 
 J. Bloino, B. G. Janesko, R. Gomperts, B. Mennucci, H. P. Hratchian, 
 J. V. Ortiz, A. F. Izmaylov, J. L. Sonnenberg, D. Williams-Young, 
 F. Ding, F. Lipparini, F. Egidi, J. Goings, B. Peng, A. Petrone, 
 T. Henderson, D. Ranasinghe, V. G. Zakrzewski, J. Gao, N. Rega, 
 G. Zheng, W. Liang, M. Hada, M. Ehara, K. Toyota, R. Fukuda, 
 J. Hasegawa, M. Ishida, T. Nakajima, Y. Honda, O. Kitao, H. Nakai, 
 T. Vreven, K. Throssell, J. A. Montgomery, Jr., J. E. Peralta, 
 F. Ogliaro, M. J. Bearpark, J. J. Heyd, E. N. Brothers, K. N. Kudin, 
 V. N. Staroverov, T. A. Keith, R. Kobayashi, J. Normand, 
 K. Raghavachari, A. P. Rendell, J. C. Burant, S. S. Iyengar, 
 J. Tomasi, M. Cossi, J. M. Millam, M. Klene, C. Adamo, R. Cammi, 
 J. W. Ochterski, R. L. Martin, K. Morokuma, O. Farkas, 
 J. B. Foresman, and D. J. Fox, Gaussian, Inc., Wallingford CT, 2019.
 
 ******************************************
 Gaussian 16:  ES64L-G16RevC.01  3-Jul-2019
                 2-Mar-2026 
 ******************************************
 %nprocshared=112
 Will use up to  112 processors via shared memory.
 %mem=10GB
 %chk=Polaprezinc.chk
 ----------------------------------------------------------------------
 # opt freq b3lyp/6-311++g(d,p) scrf=(pcm,solvent=water) geom=connectiv
 ity
 ----------------------------------------------------------------------
 1/18=20,19=15,26=3,38=1,57=2/1,3;
 2/9=110,12=2,17=6,18=5,40=1/2;
 3/5=4,6=6,7=1111,11=2,25=1,30=1,70=2201,71=1,72=1,74=-5/1,2,3;
 4//1;
 5/5=2,38=5,53=1/2;
 6/7=2,8=2,9=2,10=2,28=1/1;
 7//1,2,3,16;
 1/18=20,19=15,26=3/3(2);
 2/9=110/2;
 99//99;
 2/9=110/2;
 3/5=4,6=6,7=1111,11=2,25=1,30=1,70=2205,71=1,72=1,74=-5/1,2,3;
 4/5=5,16=3,69=1/1;
 5/5=2,38=5,53=1/2;
 7//1,2,3,16;
 1/18=20,19=15,26=3/3(-5);
 2/9=110/2;
 6/7=2,8=2,9=2,10=2,19=2,28=1/1;
 99/9=1/99;
 ------
 439224
 ------
 Symbolic Z-matrix:
 Charge =  0 Multiplicity = 1
 O                    -1.1827    2.8969   -0.5876 
 O                    -1.8901    0.1543    1.4985 
 O                     0.7136    3.5022    0.4837 
 N                    -0.695     0.3333   -0.4828 
 N                     1.7643   -1.5529   -0.3956 
 N                     3.7922   -1.9187    0.4324 
 N                    -4.8172   -2.2295   -0.4376 
 C                     0.3726    1.1474    0.0471 
 C                     1.6855    0.9161   -0.7134 
 C                     2.3783   -0.3605   -0.2965 
 C                    -1.7519   -0.0994    0.3048 
 C                    -2.7379   -0.9368   -0.4903 
 C                     0.0023    2.6229    0.0089 
 C                     3.61     -0.5774    0.2062 
 C                    -3.9062   -1.4202    0.3623 
 C                     2.6623   -2.4776    0.0599 
 H                     0.4928    0.8974    1.1094 
 H                     2.3792    1.7478   -0.534 
 H                     1.5096    0.8913   -1.7969 
 H                    -0.7045    0.1328   -1.4791 
 H                    -3.1047   -0.328    -1.3261 
 H                    -2.1952   -1.7931   -0.91 
 H                     0.8301   -1.7409   -0.736 
 H                    -4.4492   -0.5662    0.7827 
 H                    -3.5386   -2.0187    1.2031 
 H                     4.389     0.1382    0.4251 
 H                     2.4323   -3.5331    0.0937 
 H                    -5.1893   -1.6711   -1.2048 
 H                    -5.6173   -2.501     0.1323 
 H                    -1.3805    3.8576   -0.5864 
 

 GradGradGradGradGradGradGradGradGradGradGradGradGradGradGradGradGradGrad
 Berny optimization.
 Initialization pass.
                           ----------------------------
                           !    Initial Parameters    !
                           ! (Angstroms and Degrees)  !
 --------------------------                            --------------------------
 ! Name  Definition              Value          Derivative Info.                !
 --------------------------------------------------------------------------------
 ! R1    R(1,13)                 1.3547         estimate D2E/DX2                !
 ! R2    R(1,30)                 0.9809         estimate D2E/DX2                !
 ! R3    R(2,11)                 1.2282         estimate D2E/DX2                !
 ! R4    R(3,13)                 1.2266         estimate D2E/DX2                !
 ! R5    R(4,8)                  1.4434         estimate D2E/DX2                !
 ! R6    R(4,11)                 1.3873         estimate D2E/DX2                !
 ! R7    R(4,20)                 1.0163         estimate D2E/DX2                !
 ! R8    R(5,10)                 1.3449         estimate D2E/DX2                !
 ! R9    R(5,16)                 1.3671         estimate D2E/DX2                !
 ! R10   R(5,23)                 1.0119         estimate D2E/DX2                !
 ! R11   R(6,14)                 1.3724         estimate D2E/DX2                !
 ! R12   R(6,16)                 1.3145         estimate D2E/DX2                !
 ! R13   R(7,15)                 1.4576         estimate D2E/DX2                !
 ! R14   R(7,28)                 1.0192         estimate D2E/DX2                !
 ! R15   R(7,29)                 1.0191         estimate D2E/DX2                !
 ! R16   R(8,9)                  1.5348         estimate D2E/DX2                !
 ! R17   R(8,13)                 1.5217         estimate D2E/DX2                !
 ! R18   R(8,17)                 1.0979         estimate D2E/DX2                !
 ! R19   R(9,10)                 1.5111         estimate D2E/DX2                !
 ! R20   R(9,18)                 1.0978         estimate D2E/DX2                !
 ! R21   R(9,19)                 1.098          estimate D2E/DX2                !
 ! R22   R(10,14)                1.3479         estimate D2E/DX2                !
 ! R23   R(11,12)                1.5184         estimate D2E/DX2                !
 ! R24   R(12,15)                1.525          estimate D2E/DX2                !
 ! R25   R(12,21)                1.0972         estimate D2E/DX2                !
 ! R26   R(12,22)                1.0972         estimate D2E/DX2                !
 ! R27   R(14,26)                1.0802         estimate D2E/DX2                !
 ! R28   R(15,24)                1.0959         estimate D2E/DX2                !
 ! R29   R(15,25)                1.0956         estimate D2E/DX2                !
 ! R30   R(16,27)                1.0808         estimate D2E/DX2                !
 ! A1    A(13,1,30)            111.9609         estimate D2E/DX2                !
 ! A2    A(8,4,11)             122.0729         estimate D2E/DX2                !
 ! A3    A(8,4,20)             118.5601         estimate D2E/DX2                !
 ! A4    A(11,4,20)            119.2019         estimate D2E/DX2                !
 ! A5    A(10,5,16)            105.9782         estimate D2E/DX2                !
 ! A6    A(10,5,23)            127.6628         estimate D2E/DX2                !
 ! A7    A(16,5,23)            126.359          estimate D2E/DX2                !
 ! A8    A(14,6,16)            104.7578         estimate D2E/DX2                !
 ! A9    A(15,7,28)            109.6972         estimate D2E/DX2                !
 ! A10   A(15,7,29)            109.3718         estimate D2E/DX2                !
 ! A11   A(28,7,29)            106.2753         estimate D2E/DX2                !
 ! A12   A(4,8,9)              111.4573         estimate D2E/DX2                !
 ! A13   A(4,8,13)             110.9581         estimate D2E/DX2                !
 ! A14   A(4,8,17)             107.9244         estimate D2E/DX2                !
 ! A15   A(9,8,13)             109.9895         estimate D2E/DX2                !
 ! A16   A(9,8,17)             110.5769         estimate D2E/DX2                !
 ! A17   A(13,8,17)            105.7663         estimate D2E/DX2                !
 ! A18   A(8,9,10)             112.5071         estimate D2E/DX2                !
 ! A19   A(8,9,18)             110.2063         estimate D2E/DX2                !
 ! A20   A(8,9,19)             110.8143         estimate D2E/DX2                !
 ! A21   A(10,9,18)            107.7727         estimate D2E/DX2                !
 ! A22   A(10,9,19)            109.0638         estimate D2E/DX2                !
 ! A23   A(18,9,19)            106.2372         estimate D2E/DX2                !
 ! A24   A(5,10,9)             121.2913         estimate D2E/DX2                !
 ! A25   A(5,10,14)            107.5779         estimate D2E/DX2                !
 ! A26   A(9,10,14)            131.1307         estimate D2E/DX2                !
 ! A27   A(2,11,4)             124.9661         estimate D2E/DX2                !
 ! A28   A(2,11,12)            123.3528         estimate D2E/DX2                !
 ! A29   A(4,11,12)            111.6811         estimate D2E/DX2                !
 ! A30   A(11,12,15)           112.3051         estimate D2E/DX2                !
 ! A31   A(11,12,21)           108.0577         estimate D2E/DX2                !
 ! A32   A(11,12,22)           108.0298         estimate D2E/DX2                !
 ! A33   A(15,12,21)           110.2233         estimate D2E/DX2                !
 ! A34   A(15,12,22)           110.2061         estimate D2E/DX2                !
 ! A35   A(21,12,22)           107.8793         estimate D2E/DX2                !
 ! A36   A(1,13,3)             122.1892         estimate D2E/DX2                !
 ! A37   A(1,13,8)             114.8368         estimate D2E/DX2                !
 ! A38   A(3,13,8)             122.9733         estimate D2E/DX2                !
 ! A39   A(6,14,10)            109.8804         estimate D2E/DX2                !
 ! A40   A(6,14,26)            121.2195         estimate D2E/DX2                !
 ! A41   A(10,14,26)           128.9001         estimate D2E/DX2                !
 ! A42   A(7,15,12)            110.3647         estimate D2E/DX2                !
 ! A43   A(7,15,24)            109.4823         estimate D2E/DX2                !
 ! A44   A(7,15,25)            109.1198         estimate D2E/DX2                !
 ! A45   A(12,15,24)           110.3079         estimate D2E/DX2                !
 ! A46   A(12,15,25)           110.1934         estimate D2E/DX2                !
 ! A47   A(24,15,25)           107.3114         estimate D2E/DX2                !
 ! A48   A(5,16,6)             111.8056         estimate D2E/DX2                !
 ! A49   A(5,16,27)            122.0866         estimate D2E/DX2                !
 ! A50   A(6,16,27)            126.1078         estimate D2E/DX2                !
 ! D1    D(30,1,13,3)            0.0872         estimate D2E/DX2                !
 ! D2    D(30,1,13,8)          179.8222         estimate D2E/DX2                !
 ! D3    D(11,4,8,9)           151.3019         estimate D2E/DX2                !
 ! D4    D(11,4,8,13)          -85.7502         estimate D2E/DX2                !
 ! D5    D(11,4,8,17)           29.6983         estimate D2E/DX2                !
 ! D6    D(20,4,8,9)           -33.4088         estimate D2E/DX2                !
 ! D7    D(20,4,8,13)           89.539          estimate D2E/DX2                !
 ! D8    D(20,4,8,17)         -155.0124         estimate D2E/DX2                !
 ! D9    D(8,4,11,2)             0.0017         estimate D2E/DX2                !
 ! D10   D(8,4,11,12)          179.9521         estimate D2E/DX2                !
 ! D11   D(20,4,11,2)         -175.2583         estimate D2E/DX2                !
 ! D12   D(20,4,11,12)           4.692          estimate D2E/DX2                !
 ! D13   D(16,5,10,9)         -179.9976         estimate D2E/DX2                !
 ! D14   D(16,5,10,14)          -0.0121         estimate D2E/DX2                !
 ! D15   D(23,5,10,9)            0.0267         estimate D2E/DX2                !
 ! D16   D(23,5,10,14)        -179.9878         estimate D2E/DX2                !
 ! D17   D(10,5,16,6)           -0.008          estimate D2E/DX2                !
 ! D18   D(10,5,16,27)         179.996          estimate D2E/DX2                !
 ! D19   D(23,5,16,6)          179.9681         estimate D2E/DX2                !
 ! D20   D(23,5,16,27)          -0.0279         estimate D2E/DX2                !
 ! D21   D(16,6,14,10)          -0.0316         estimate D2E/DX2                !
 ! D22   D(16,6,14,26)         179.9761         estimate D2E/DX2                !
 ! D23   D(14,6,16,5)            0.0241         estimate D2E/DX2                !
 ! D24   D(14,6,16,27)        -179.9801         estimate D2E/DX2                !
 ! D25   D(28,7,15,12)         -60.6884         estimate D2E/DX2                !
 ! D26   D(28,7,15,24)          60.9129         estimate D2E/DX2                !
 ! D27   D(28,7,15,25)         178.0877         estimate D2E/DX2                !
 ! D28   D(29,7,15,12)        -176.8821         estimate D2E/DX2                !
 ! D29   D(29,7,15,24)         -55.2808         estimate D2E/DX2                !
 ! D30   D(29,7,15,25)          61.894          estimate D2E/DX2                !
 ! D31   D(4,8,9,10)           -78.1795         estimate D2E/DX2                !
 ! D32   D(4,8,9,18)           161.5169         estimate D2E/DX2                !
 ! D33   D(4,8,9,19)            44.2155         estimate D2E/DX2                !
 ! D34   D(13,8,9,10)          158.3206         estimate D2E/DX2                !
 ! D35   D(13,8,9,18)           38.0169         estimate D2E/DX2                !
 ! D36   D(13,8,9,19)          -79.2845         estimate D2E/DX2                !
 ! D37   D(17,8,9,10)           41.8717         estimate D2E/DX2                !
 ! D38   D(17,8,9,18)          -78.4319         estimate D2E/DX2                !
 ! D39   D(17,8,9,19)          164.2667         estimate D2E/DX2                !
 ! D40   D(4,8,13,1)            -4.5191         estimate D2E/DX2                !
 ! D41   D(4,8,13,3)           175.2135         estimate D2E/DX2                !
 ! D42   D(9,8,13,1)           119.2719         estimate D2E/DX2                !
 ! D43   D(9,8,13,3)           -60.9954         estimate D2E/DX2                !
 ! D44   D(17,8,13,1)         -121.3007         estimate D2E/DX2                !
 ! D45   D(17,8,13,3)           58.4319         estimate D2E/DX2                !
 ! D46   D(8,9,10,5)            57.9235         estimate D2E/DX2                !
 ! D47   D(8,9,10,14)         -122.0581         estimate D2E/DX2                !
 ! D48   D(18,9,10,5)          179.621          estimate D2E/DX2                !
 ! D49   D(18,9,10,14)          -0.3606         estimate D2E/DX2                !
 ! D50   D(19,9,10,5)          -65.4536         estimate D2E/DX2                !
 ! D51   D(19,9,10,14)         114.5647         estimate D2E/DX2                !
 ! D52   D(5,10,14,6)            0.0276         estimate D2E/DX2                !
 ! D53   D(5,10,14,26)        -179.981          estimate D2E/DX2                !
 ! D54   D(9,10,14,6)         -179.9889         estimate D2E/DX2                !
 ! D55   D(9,10,14,26)           0.0026         estimate D2E/DX2                !
 ! D56   D(2,11,12,15)          -0.0482         estimate D2E/DX2                !
 ! D57   D(2,11,12,21)         121.7375         estimate D2E/DX2                !
 ! D58   D(2,11,12,22)        -121.7933         estimate D2E/DX2                !
 ! D59   D(4,11,12,15)        -179.9995         estimate D2E/DX2                !
 ! D60   D(4,11,12,21)         -58.2138         estimate D2E/DX2                !
 ! D61   D(4,11,12,22)          58.2554         estimate D2E/DX2                !
 ! D62   D(11,12,15,7)        -179.4081         estimate D2E/DX2                !
 ! D63   D(11,12,15,24)         59.4809         estimate D2E/DX2                !
 ! D64   D(11,12,15,25)        -58.8249         estimate D2E/DX2                !
 ! D65   D(21,12,15,7)          60.0491         estimate D2E/DX2                !
 ! D66   D(21,12,15,24)        -61.0619         estimate D2E/DX2                !
 ! D67   D(21,12,15,25)       -179.3677         estimate D2E/DX2                !
 ! D68   D(22,12,15,7)         -58.9127         estimate D2E/DX2                !
 ! D69   D(22,12,15,24)        179.9763         estimate D2E/DX2                !
 ! D70   D(22,12,15,25)         61.6705         estimate D2E/DX2                !
 --------------------------------------------------------------------------------
 Trust Radius=3.00D-01 FncErr=1.00D-07 GrdErr=1.00D-06 EigMax=2.50D+02 EigMin=1.00D-04
 Number of steps in this run=    160 maximum allowed number of steps=    180.
 GradGradGradGradGradGradGradGradGradGradGradGradGradGradGradGradGradGrad

                          Input orientation:                          
 ---------------------------------------------------------------------
 Center     Atomic      Atomic             Coordinates (Angstroms)
 Number     Number       Type             X           Y           Z
 ---------------------------------------------------------------------
      1          8           0       -1.182700    2.896900   -0.587600
      2          8           0       -1.890100    0.154300    1.498500
      3          8           0        0.713600    3.502200    0.483700
      4          7           0       -0.695000    0.333300   -0.482800
      5          7           0        1.764300   -1.552900   -0.395600
      6          7           0        3.792200   -1.918700    0.432400
      7          7           0       -4.817200   -2.229500   -0.437600
      8          6           0        0.372600    1.147400    0.047100
      9          6           0        1.685500    0.916100   -0.713400
     10          6           0        2.378300   -0.360500   -0.296500
     11          6           0       -1.751900   -0.099400    0.304800
     12          6           0       -2.737900   -0.936800   -0.490300
     13          6           0        0.002300    2.622900    0.008900
     14          6           0        3.610000   -0.577400    0.206200
     15          6           0       -3.906200   -1.420200    0.362300
     16          6           0        2.662300   -2.477600    0.059900
     17          1           0        0.492800    0.897400    1.109400
     18          1           0        2.379200    1.747800   -0.534000
     19          1           0        1.509600    0.891300   -1.796900
     20          1           0       -0.704500    0.132800   -1.479100
     21          1           0       -3.104700   -0.328000   -1.326100
     22          1           0       -2.195200   -1.793100   -0.910000
     23          1           0        0.830100   -1.740900   -0.736000
     24          1           0       -4.449200   -0.566200    0.782700
     25          1           0       -3.538600   -2.018700    1.203100
     26          1           0        4.389000    0.138200    0.425100
     27          1           0        2.432300   -3.533100    0.093700
     28          1           0       -5.189300   -1.671100   -1.204800
     29          1           0       -5.617300   -2.501000    0.132300
     30          1           0       -1.380500    3.857600   -0.586400
 ---------------------------------------------------------------------
                    Distance matrix (angstroms):
                    1          2          3          4          5
     1  O    0.000000
     2  O    3.517681   0.000000
     3  O    2.260537   4.360907   0.000000
     4  N    2.611681   2.320744   3.600028   0.000000
     5  N    5.340636   4.456095   5.237478   3.100566   0.000000
     6  N    6.998574   6.141859   6.234306   5.103338   2.220759
     7  N    6.285862   4.242511   8.018162   4.854124   6.616320
     8  C    2.425397   2.865767   2.419087   1.443372   3.069924
     9  C    3.487974   4.272910   3.010905   2.461628   2.490616
    10  C    4.834885   4.659000   4.277895   3.156143   1.344855
    11  C    3.177763   1.228162   4.368320   1.387293   3.868706
    12  C    4.138281   2.421691   5.706685   2.405546   4.545146
    13  C    1.354664   3.448778   1.226601   2.443412   4.550337
    14  C    5.972508   5.697063   5.010916   4.453888   2.172642
    15  C    5.192024   2.799046   6.751838   3.755098   5.722464
    16  C    6.639920   5.451680   6.303574   4.412159   1.367097
    17  H    3.112091   2.526224   2.687980   2.064989   3.144154
    18  H    3.743052   4.989712   2.624473   3.384396   3.360339
    19  H    3.568377   4.791742   3.556902   2.626497   2.828892
    20  H    2.943416   3.205029   4.149271   1.016319   3.179706
    21  H    3.826153   3.112271   5.703089   2.637257   5.106209
    22  H    4.808867   3.112286   6.200300   2.637172   3.999993
    23  H    5.057922   3.998032   5.384360   2.586957   1.011902
    24  H    4.953868   2.753268   6.579953   4.062586   6.400746
    25  H    5.737595   2.743491   7.005646   4.057120   5.558198
    26  H    6.299193   6.370207   4.982820   5.168114   3.228377
    27  H    7.407921   5.852651   7.252687   5.006137   2.146353
    28  H    6.107406   4.639465   8.028592   4.973694   7.001523
    29  H    7.022909   4.775892   8.731677   5.713199   7.460938
    30  H    0.980852   4.280296   2.378377   3.591843   6.260965
                    6          7          8          9         10
     6  N    0.000000
     7  N    8.658826   0.000000
     8  C    4.609023   6.210669   0.000000
     9  C    3.713103   7.228829   1.534785   0.000000
    10  C    2.226746   7.435610   2.532717   1.511120   0.000000
    11  C    5.836367   3.805857   2.476776   3.726082   4.181900
    12  C    6.667661   2.448947   3.782578   4.800987   5.152202
    13  C    5.930331   6.853665   1.521736   2.503607   3.826137
    14  C    1.372388   8.611714   3.671649   2.603825   1.347901
    15  C    7.714841   1.457645   5.000005   6.154879   6.407177
    16  C    1.314458   7.500132   4.287600   3.615153   2.165592
    17  H    4.390306   6.353488   1.097920   2.178413   2.667204
    18  H    4.046445   8.222918   2.173615   1.097784   2.121635
    19  H    4.251605   7.184392   2.181443   1.097965   2.138421
    20  H    5.299320   4.855871   2.125757   2.629060   3.338494
    21  H    7.293139   2.708836   4.019216   4.986903   5.578927
    22  H    6.137326   2.699720   4.019475   4.736903   4.831731
    23  H    3.189170   5.676246   3.027347   2.791392   2.120280
    24  H    8.358986   2.095501   5.169844   6.486145   6.915327
    25  H    7.371879   2.090730   5.163140   6.291045   6.325198
    26  H    2.141743   9.544861   4.158466   3.034835   2.193701
    27  H    2.137834   7.384910   5.113865   4.583067   3.196961
    28  H    9.132857   1.019247   6.359711   7.361926   7.733773
    29  H    9.432276   1.019146   7.014056   8.106952   8.288259
    30  H    7.820513   6.991841   3.289356   4.250754   5.657295
                   11         12         13         14         15
    11  C    0.000000
    12  C    1.518426   0.000000
    13  C    3.252029   4.519885   0.000000
    14  C    5.384067   6.396102   4.826629   0.000000
    15  C    2.527613   1.524968   5.634529   7.564915   0.000000
    16  C    5.020057   5.642601   5.752678   2.128450   6.659935
    17  H    2.584506   4.044843   2.104529   3.564792   5.027985
    18  H    4.602360   5.778728   2.590404   2.733006   7.095480
    19  H    4.004499   4.805248   2.920840   3.252871   6.271847
    20  H    2.081649   2.501297   2.985684   4.686100   4.006675
    21  H    2.131235   1.097151   4.488149   6.891831   2.164717
    22  H    2.130933   1.097233   5.017414   6.035244   2.164561
    23  H    3.231797   3.665729   4.503652   3.157423   4.872540
    24  H    2.778798   2.164814   5.530369   8.079801   1.095856
    25  H    2.771814   2.163153   5.958904   7.360274   1.095571
    26  H    6.146672   7.265417   5.058665   1.080204   8.440551
    27  H    5.416862   5.814877   6.618793   3.183676   6.686784
    28  H    4.069994   2.656891   6.845744   8.978573   2.040857
    29  H    4.553982   3.335461   7.605885   9.425962   2.036883
    30  H    4.073085   4.983778   1.947050   6.723283   5.927425
                   16         17         18         19         20
    16  C    0.000000
    17  H    4.147144   0.000000
    18  H    4.276315   2.642432   0.000000
    19  H    4.015708   3.079042   1.756335   0.000000
    20  H    4.529686   2.952706   3.607027   2.361897   0.000000
    21  H    6.308729   4.513898   5.916885   4.795843   2.448817
    22  H    5.000455   4.306055   5.796937   4.660272   2.501030
    23  H    2.129117   3.237267   3.822505   2.918168   2.533367
    24  H    7.399278   5.164516   7.329075   6.654768   4.430250
    25  H    6.322077   4.976405   7.226645   6.553810   4.455925
    26  H    3.155515   4.028030   2.747723   3.714214   5.437807
    27  H    1.080797   4.941926   5.318339   4.899088   5.074646
    28  H    7.993593   6.651239   8.331929   7.196648   4.841769
    29  H    8.279950   7.059545   9.079662   8.125406   5.802509
    30  H    7.542990   3.892014   4.311536   4.314733   3.889476
                   21         22         23         24         25
    21  H    0.000000
    22  H    1.773936   0.000000
    23  H    4.222222   3.030749   0.000000
    24  H    2.512261   3.074253   5.617595   0.000000
    25  H    3.073042   2.514122   4.787778   1.765130   0.000000
    26  H    7.709707   6.990286   4.188668   8.873434   8.252536
    27  H    6.553386   5.044677   2.543114   7.525441   6.259059
    28  H    2.482778   3.011051   6.038031   2.391382   2.940003
    29  H    3.627950   3.646681   6.549860   2.351793   2.387513
    30  H    4.586858   5.718292   6.020991   5.555300   6.510807
                   26         27         28         29         30
    26  H    0.000000
    27  H    4.173361   0.000000
    28  H    9.883014   7.952480   0.000000
    29  H   10.352640   8.115589   1.630875   0.000000
    30  H    6.938602   8.344005   6.742099   7.674555   0.000000
 Stoichiometry    C9H14N4O3
 Framework group  C1[X(C9H14N4O3)]
 Deg. of freedom    84
 Full point group                 C1      NOp   1
 Largest Abelian subgroup         C1      NOp   1
 Largest concise Abelian subgroup C1      NOp   1
                         Standard orientation:                         
 ---------------------------------------------------------------------
 Center     Atomic      Atomic             Coordinates (Angstroms)
 Number     Number       Type             X           Y           Z
 ---------------------------------------------------------------------
      1          8           0       -0.830488    2.951197   -0.549590
      2          8           0       -1.713370    0.255468    1.530709
      3          8           0        1.106752    3.423084    0.515514
      4          7           0       -0.516945    0.360127   -0.455107
      5          7           0        1.809428   -1.688413   -0.384495
      6          7           0        3.811271   -2.193448    0.433632
      7          7           0       -4.802886   -1.918084   -0.400474
      8          6           0        0.605433    1.098285    0.072825
      9          6           0        1.896578    0.781356   -0.694031
     10          6           0        2.503098   -0.540634   -0.284201
     11          6           0       -1.597496   -0.002831    0.335620
     12          6           0       -2.641115   -0.768830   -0.457932
     13          6           0        0.335666    2.595580    0.040946
     14          6           0        3.719329   -0.842114    0.212520
     15          6           0       -3.835977   -1.175063    0.398109
     16          6           0        2.644643   -2.673328    0.064184
     17          1           0        0.712751    0.837020    1.133792
     18          1           0        2.645686    1.563592   -0.514936
     19          1           0        1.715010    0.772295   -1.776841
     20          1           0       -0.544031    0.164209   -1.451996
     21          1           0       -2.969269   -0.133697   -1.290195
     22          1           0       -2.159305   -1.658411   -0.882698
     23          1           0        0.863275   -1.811596   -0.721492
     24          1           0       -4.318239   -0.287759    0.823569
     25          1           0       -3.506308   -1.799991    1.235402
     26          1           0        4.545844   -0.181620    0.430376
     27          1           0        2.343891   -3.710962    0.095582
     28          1           0       -5.139459   -1.333116   -1.164277
     29          1           0       -5.617204   -2.136824    0.171974
     30          1           0       -0.962825    3.923067   -0.544460
 ---------------------------------------------------------------------
 Rotational constants (GHZ):           0.5986395           0.3273018           0.2275110
 Standard basis: 6-311++G(d,p) (5D, 7F)
 There are   466 symmetry adapted cartesian basis functions of A   symmetry.
 There are   450 symmetry adapted basis functions of A   symmetry.
   450 basis functions,   702 primitive gaussians,   466 cartesian basis functions
    60 alpha electrons       60 beta electrons
       nuclear repulsion energy      1108.2894014757 Hartrees.
 NAtoms=   30 NActive=   30 NUniq=   30 SFac= 1.00D+00 NAtFMM=   60 NAOKFM=F Big=F
 Integral buffers will be    131072 words long.
 Raffenetti 2 integral format.
 Two-electron integral symmetry is turned on.
 ------------------------------------------------------------------------------
 Polarizable Continuum Model (PCM)
 =================================
 Model                : PCM.
 Atomic radii         : UFF (Universal Force Field).
 Polarization charges : Total charges.
 Charge compensation  : None.
 Solution method      : On-the-fly selection.
 Cavity type          : Scaled VdW (van der Waals Surface) (Alpha=1.100).
 Cavity algorithm     : GePol (No added spheres)
                        Default sphere list used, NSphG=   30.
                        Lebedev-Laikov grids with approx.  5.0 points / Ang**2.
                        Smoothing algorithm: York/Karplus (Gamma=1.0000).
                        Polarization charges: spherical gaussians, with
                                              point-specific exponents (IZeta= 3).
                        Self-potential: point-specific (ISelfS= 7).
                        Self-field    : sphere-specific E.n sum rule (ISelfD= 2).
 1st derivatives      : Analytical E(r).r(x)/FMM algorithm (CHGder, D1EAlg=3).
                        Cavity 1st derivative terms included.
 Solvent              : Water, Eps=  78.355300 Eps(inf)=   1.777849
 ------------------------------------------------------------------------------
 One-electron integrals computed using PRISM.
 NBasis=   450 RedAO= T EigKep=  1.64D-06  NBF=   450
 NBsUse=   450 1.00D-06 EigRej= -1.00D+00 NBFU=   450
 ExpMin= 3.60D-02 ExpMax= 8.59D+03 ExpMxC= 1.30D+03 IAcc=3 IRadAn=         5 AccDes= 0.00D+00
 Harris functional with IExCor=  402 and IRadAn=       5 diagonalized for initial guess.
 HarFok:  IExCor=  402 AccDes= 0.00D+00 IRadAn=         5 IDoV= 1 UseB2=F ITyADJ=14
 ICtDFT=  3500011 ScaDFX=  1.000000  1.000000  1.000000  1.000000
 FoFCou: FMM=F IPFlag=           0 FMFlag=      100000 FMFlg1=           0
         NFxFlg=           0 DoJE=T BraDBF=F KetDBF=T FulRan=T
         wScrn=  0.000000 ICntrl=       500 IOpCl=  0 I1Cent=   200000004 NGrid=           0
         NMat0=    1 NMatS0=      1 NMatT0=    0 NMatD0=    1 NMtDS0=    0 NMtDT0=    0
 Petite list used in FoFCou.
 Requested convergence on RMS density matrix=1.00D-08 within 128 cycles.
 Requested convergence on MAX density matrix=1.00D-06.
 Requested convergence on             energy=1.00D-06.
 No special actions if energy rises.
 Inv3:  Mode=1 IEnd=    15994443.
 Iteration    1 A*A^-1 deviation from unit magnitude is 9.88D-15 for   2296.
 Iteration    1 A*A^-1 deviation from orthogonality  is 5.20D-15 for   2299     38.
 Iteration    1 A^-1*A deviation from unit magnitude is 9.88D-15 for   2296.
 Iteration    1 A^-1*A deviation from orthogonality  is 2.01D-14 for   1847   1824.
 Error on total polarization charges =  0.01914
 SCF Done:  E(RB3LYP) =  -796.349192694     A.U. after   14 cycles
            NFock= 14  Conv=0.61D-08     -V/T= 2.0040

 **********************************************************************

            Population analysis using the SCF Density.

 **********************************************************************

 Orbital symmetries:
       Occupied  (A) (A) (A) (A) (A) (A) (A) (A) (A) (A) (A) (A)
                 (A) (A) (A) (A) (A) (A) (A) (A) (A) (A) (A) (A)
                 (A) (A) (A) (A) (A) (A) (A) (A) (A) (A) (A) (A)
                 (A) (A) (A) (A) (A) (A) (A) (A) (A) (A) (A) (A)
                 (A) (A) (A) (A) (A) (A) (A) (A) (A) (A) (A) (A)
       Virtual   (A) (A) (A) (A) (A) (A) (A) (A) (A) (A) (A) (A)
                 (A) (A) (A) (A) (A) (A) (A) (A) (A) (A) (A) (A)
                 (A) (A) (A) (A) (A) (A) (A) (A) (A) (A) (A) (A)
                 (A) (A) (A) (A) (A) (A) (A) (A) (A) (A) (A) (A)
                 (A) (A) (A) (A) (A) (A) (A) (A) (A) (A) (A) (A)
                 (A) (A) (A) (A) (A) (A) (A) (A) (A) (A) (A) (A)
                 (A) (A) (A) (A) (A) (A) (A) (A) (A) (A) (A) (A)
                 (A) (A) (A) (A) (A) (A) (A) (A) (A) (A) (A) (A)
                 (A) (A) (A) (A) (A) (A) (A) (A) (A) (A) (A) (A)
                 (A) (A) (A) (A) (A) (A) (A) (A) (A) (A) (A) (A)
                 (A) (A) (A) (A) (A) (A) (A) (A) (A) (A) (A) (A)
                 (A) (A) (A) (A) (A) (A) (A) (A) (A) (A) (A) (A)
                 (A) (A) (A) (A) (A) (A) (A) (A) (A) (A) (A) (A)
                 (A) (A) (A) (A) (A) (A) (A) (A) (A) (A) (A) (A)
                 (A) (A) (A) (A) (A) (A) (A) (A) (A) (A) (A) (A)
                 (A) (A) (A) (A) (A) (A) (A) (A) (A) (A) (A) (A)
                 (A) (A) (A) (A) (A) (A) (A) (A) (A) (A) (A) (A)
                 (A) (A) (A) (A) (A) (A) (A) (A) (A) (A) (A) (A)
                 (A) (A) (A) (A) (A) (A) (A) (A) (A) (A) (A) (A)
                 (A) (A) (A) (A) (A) (A) (A) (A) (A) (A) (A) (A)
                 (A) (A) (A) (A) (A) (A) (A) (A) (A) (A) (A) (A)
                 (A) (A) (A) (A) (A) (A) (A) (A) (A) (A) (A) (A)
                 (A) (A) (A) (A) (A) (A) (A) (A) (A) (A) (A) (A)
                 (A) (A) (A) (A) (A) (A) (A) (A) (A) (A) (A) (A)
                 (A) (A) (A) (A) (A) (A) (A) (A) (A) (A) (A) (A)
                 (A) (A) (A) (A) (A) (A) (A) (A) (A) (A) (A) (A)
                 (A) (A) (A) (A) (A) (A) (A) (A) (A) (A) (A) (A)
                 (A) (A) (A) (A) (A) (A) (A) (A) (A) (A) (A) (A)
                 (A) (A) (A) (A) (A) (A) (A) (A) (A) (A) (A) (A)
                 (A) (A) (A) (A) (A) (A) (A) (A) (A) (A) (A) (A)
                 (A) (A) (A) (A) (A) (A) (A) (A) (A) (A) (A) (A)
                 (A) (A) (A) (A) (A) (A) (A) (A) (A) (A) (A) (A)
                 (A) (A) (A) (A) (A) (A)
 The electronic state is 1-A.
 Alpha  occ. eigenvalues --  -19.18951 -19.13434 -19.11516 -14.37407 -14.35577
 Alpha  occ. eigenvalues --  -14.30644 -14.29861 -10.32925 -10.29503 -10.24917
 Alpha  occ. eigenvalues --  -10.23081 -10.21122 -10.20519 -10.19687 -10.18538
 Alpha  occ. eigenvalues --  -10.18508  -1.12342  -1.05933  -1.03587  -1.03451
 Alpha  occ. eigenvalues --   -0.95163  -0.89237  -0.88848  -0.81831  -0.77322
 Alpha  occ. eigenvalues --   -0.74598  -0.69411  -0.64894  -0.62674  -0.62431
 Alpha  occ. eigenvalues --   -0.60567  -0.59709  -0.55805  -0.53351  -0.51441
 Alpha  occ. eigenvalues --   -0.50935  -0.49582  -0.48874  -0.47644  -0.46821
 Alpha  occ. eigenvalues --   -0.46572  -0.44974  -0.44104  -0.42699  -0.42152
 Alpha  occ. eigenvalues --   -0.41676  -0.41360  -0.40113  -0.39521  -0.39229
 Alpha  occ. eigenvalues --   -0.37263  -0.35955  -0.34221  -0.32100  -0.30049
 Alpha  occ. eigenvalues --   -0.29259  -0.28344  -0.27546  -0.25065  -0.23982
 Alpha virt. eigenvalues --   -0.03067  -0.01496  -0.00787  -0.00286   0.00190
 Alpha virt. eigenvalues --    0.00737   0.00895   0.01288   0.02409   0.02486
 Alpha virt. eigenvalues --    0.02952   0.03762   0.04170   0.04348   0.04645
 Alpha virt. eigenvalues --    0.05124   0.05982   0.06680   0.06966   0.07079
 Alpha virt. eigenvalues --    0.07632   0.07713   0.08115   0.08712   0.09521
 Alpha virt. eigenvalues --    0.09756   0.10059   0.10988   0.11150   0.11567
 Alpha virt. eigenvalues --    0.12140   0.12623   0.12761   0.13114   0.13260
 Alpha virt. eigenvalues --    0.13510   0.13837   0.14135   0.14356   0.14594
 Alpha virt. eigenvalues --    0.14835   0.15059   0.15234   0.15712   0.16045
 Alpha virt. eigenvalues --    0.16884   0.16972   0.17473   0.17775   0.17907
 Alpha virt. eigenvalues --    0.18355   0.18822   0.19024   0.19204   0.19693
 Alpha virt. eigenvalues --    0.20561   0.20667   0.21117   0.21561   0.21947
 Alpha virt. eigenvalues --    0.22078   0.22469   0.22819   0.23230   0.23404
 Alpha virt. eigenvalues --    0.24048   0.24410   0.24754   0.25213   0.25466
 Alpha virt. eigenvalues --    0.25922   0.26168   0.26385   0.27107   0.27375
 Alpha virt. eigenvalues --    0.28169   0.28302   0.28564   0.28832   0.29598
 Alpha virt. eigenvalues --    0.30118   0.30555   0.30806   0.31192   0.31378
 Alpha virt. eigenvalues --    0.31881   0.32224   0.32586   0.32889   0.33738
 Alpha virt. eigenvalues --    0.34244   0.34494   0.35418   0.35590   0.36358
 Alpha virt. eigenvalues --    0.36605   0.37159   0.37578   0.38289   0.38697
 Alpha virt. eigenvalues --    0.39237   0.39903   0.41508   0.42566   0.43235
 Alpha virt. eigenvalues --    0.44257   0.44966   0.45924   0.46638   0.47001
 Alpha virt. eigenvalues --    0.48455   0.49527   0.50505   0.51788   0.54098
 Alpha virt. eigenvalues --    0.54661   0.55457   0.56286   0.57319   0.58784
 Alpha virt. eigenvalues --    0.59575   0.60444   0.61041   0.61605   0.62222
 Alpha virt. eigenvalues --    0.62754   0.63190   0.64298   0.64975   0.65581
 Alpha virt. eigenvalues --    0.66098   0.66709   0.67915   0.69010   0.69517
 Alpha virt. eigenvalues --    0.70385   0.70754   0.71091   0.72020   0.72393
 Alpha virt. eigenvalues --    0.73468   0.74682   0.74913   0.76029   0.76459
 Alpha virt. eigenvalues --    0.77090   0.78025   0.78177   0.79512   0.80562
 Alpha virt. eigenvalues --    0.81316   0.83453   0.84542   0.86131   0.87577
 Alpha virt. eigenvalues --    0.88164   0.88594   0.88978   0.89718   0.90426
 Alpha virt. eigenvalues --    0.90659   0.92781   0.93608   0.93960   0.97262
 Alpha virt. eigenvalues --    0.98523   0.99504   1.01653   1.02827   1.03978
 Alpha virt. eigenvalues --    1.05682   1.06326   1.07476   1.08834   1.10032
 Alpha virt. eigenvalues --    1.11442   1.13572   1.15279   1.15876   1.17387
 Alpha virt. eigenvalues --    1.17675   1.18564   1.19047   1.20557   1.21155
 Alpha virt. eigenvalues --    1.22493   1.23866   1.24318   1.25941   1.26965
 Alpha virt. eigenvalues --    1.28096   1.30028   1.31800   1.32438   1.34056
 Alpha virt. eigenvalues --    1.35495   1.36095   1.38119   1.39551   1.41090
 Alpha virt. eigenvalues --    1.44001   1.44634   1.46264   1.47658   1.48585
 Alpha virt. eigenvalues --    1.50259   1.52036   1.52477   1.55361   1.57205
 Alpha virt. eigenvalues --    1.57358   1.58640   1.59149   1.60147   1.61021
 Alpha virt. eigenvalues --    1.62330   1.64197   1.65041   1.65549   1.66131
 Alpha virt. eigenvalues --    1.66483   1.67096   1.68349   1.69248   1.70367
 Alpha virt. eigenvalues --    1.71755   1.72903   1.73318   1.75320   1.76127
 Alpha virt. eigenvalues --    1.76691   1.79992   1.80678   1.81708   1.82016
 Alpha virt. eigenvalues --    1.82739   1.83612   1.84951   1.85219   1.88192
 Alpha virt. eigenvalues --    1.89507   1.90518   1.92346   1.94739   1.97346
 Alpha virt. eigenvalues --    1.99082   1.99705   2.03303   2.03988   2.06095
 Alpha virt. eigenvalues --    2.07698   2.08273   2.10395   2.12103   2.12760
 Alpha virt. eigenvalues --    2.14461   2.15949   2.19479   2.20939   2.22955
 Alpha virt. eigenvalues --    2.24900   2.25490   2.26753   2.27705   2.31034
 Alpha virt. eigenvalues --    2.33771   2.35783   2.36882   2.38606   2.40805
 Alpha virt. eigenvalues --    2.44697   2.45624   2.47654   2.49665   2.51641
 Alpha virt. eigenvalues --    2.52372   2.54436   2.55192   2.56395   2.58310
 Alpha virt. eigenvalues --    2.59350   2.59804   2.60150   2.60805   2.64178
 Alpha virt. eigenvalues --    2.65104   2.66967   2.67582   2.69927   2.70162
 Alpha virt. eigenvalues --    2.71295   2.72842   2.74644   2.76640   2.78270
 Alpha virt. eigenvalues --    2.78785   2.79550   2.80846   2.81450   2.83376
 Alpha virt. eigenvalues --    2.85135   2.87034   2.88511   2.89831   2.90854
 Alpha virt. eigenvalues --    2.90884   2.92229   2.93313   2.93588   2.94633
 Alpha virt. eigenvalues --    2.96485   2.97976   2.99363   3.01108   3.01220
 Alpha virt. eigenvalues --    3.02109   3.02981   3.04995   3.09929   3.10503
 Alpha virt. eigenvalues --    3.11793   3.14299   3.17328   3.20215   3.21162
 Alpha virt. eigenvalues --    3.24121   3.32672   3.33310   3.34843   3.36010
 Alpha virt. eigenvalues --    3.40361   3.46277   3.51594   3.54402   3.57552
 Alpha virt. eigenvalues --    3.58682   3.61777   3.62823   3.70072   3.72636
 Alpha virt. eigenvalues --    3.74809   3.80233   3.81164   3.81534   3.83941
 Alpha virt. eigenvalues --    3.87605   3.89447   3.92479   3.92952   3.98362
 Alpha virt. eigenvalues --    4.05197   4.06925   4.08560   4.12907   4.21710
 Alpha virt. eigenvalues --    4.30841   4.32577   4.49949   4.71941   4.76948
 Alpha virt. eigenvalues --    4.82467   4.87395   4.95368   4.96963   4.98767
 Alpha virt. eigenvalues --    5.05240   5.10988   5.16844   5.28253   5.29097
 Alpha virt. eigenvalues --    5.39080   5.60407   5.77623   5.84235  23.76013
 Alpha virt. eigenvalues --   23.77785  23.82183  23.84461  23.87099  23.90238
 Alpha virt. eigenvalues --   23.92667  23.95230  24.21827  35.55529  35.58651
 Alpha virt. eigenvalues --   35.60539  35.70972  49.86271  49.98173  50.01385
          Condensed to atoms (all electrons):
               1          2          3          4          5          6
     1  O    7.944569   0.016205  -0.112165  -0.054946   0.000561   0.000029
     2  O    0.016205   8.082227  -0.001061  -0.136397   0.003958   0.000404
     3  O   -0.112165  -0.001061   8.072623  -0.001578  -0.001555   0.000067
     4  N   -0.054946  -0.136397  -0.001578   7.975821   0.042314   0.000835
     5  N    0.000561   0.003958  -0.001555   0.042314   6.767712   0.017882
     6  N    0.000029   0.000404   0.000067   0.000835   0.017882   6.714782
     7  N    0.000100   0.000597   0.000000  -0.004406   0.000114   0.000001
     8  C    0.039566   0.017194   0.095004  -0.441736  -0.155104   0.009036
     9  C   -0.115261  -0.035627  -0.167673   0.212322  -0.017992  -0.055053
    10  C    0.014244   0.016827   0.025756  -0.105934  -0.164073  -0.200146
    11  C    0.031999   0.373890   0.023065  -0.603004  -0.053277  -0.005095
    12  C   -0.008808   0.075797  -0.005798  -0.404103   0.014383   0.000829
    13  C    0.221361  -0.038432   0.401321   0.449258   0.085791   0.004987
    14  C   -0.003885   0.009737   0.002348  -0.128350   0.051866   0.497415
    15  C   -0.005772  -0.021748   0.000417  -0.067910  -0.001214  -0.000075
    16  C    0.000197   0.002494  -0.000356  -0.003535   0.212905   0.367242
    17  H    0.001470  -0.003160  -0.000196  -0.071680   0.005481  -0.000506
    18  H    0.003186   0.000821   0.006148   0.029489   0.011366  -0.001380
    19  H    0.002596  -0.000685   0.003602  -0.017734   0.008805   0.000823
    20  H   -0.009769   0.005998  -0.003273   0.269515   0.004490  -0.000334
    21  H   -0.000259   0.006550   0.000428   0.055050   0.000302  -0.000015
    22  H    0.002031   0.009679   0.000053   0.025218  -0.000041  -0.000004
    23  H   -0.001046  -0.003938  -0.000497  -0.015260   0.378089   0.012568
    24  H   -0.000313  -0.011507  -0.000015  -0.013587  -0.000042  -0.000002
    25  H   -0.000309  -0.009877   0.000020  -0.006410  -0.000429  -0.000022
    26  H   -0.000213   0.000090   0.000023  -0.001352   0.022968  -0.062771
    27  H    0.000050   0.000027  -0.000012   0.001383  -0.084543  -0.060026
    28  H   -0.000003  -0.000011  -0.000007  -0.002489  -0.000014  -0.000001
    29  H    0.000002   0.000098   0.000001   0.000330  -0.000011  -0.000001
    30  H    0.194588   0.001914  -0.023675  -0.001648   0.000239   0.000021
               7          8          9         10         11         12
     1  O    0.000100   0.039566  -0.115261   0.014244   0.031999  -0.008808
     2  O    0.000597   0.017194  -0.035627   0.016827   0.373890   0.075797
     3  O    0.000000   0.095004  -0.167673   0.025756   0.023065  -0.005798
     4  N   -0.004406  -0.441736   0.212322  -0.105934  -0.603004  -0.404103
     5  N    0.000114  -0.155104  -0.017992  -0.164073  -0.053277   0.014383
     6  N    0.000001   0.009036  -0.055053  -0.200146  -0.005095   0.000829
     7  N    6.673480   0.004267  -0.000117  -0.000010   0.011884  -0.052394
     8  C    0.004267  11.037029  -2.754649   0.970187   0.357912  -0.408579
     9  C   -0.000117  -2.754649  16.226685  -5.732192  -0.592559   0.001899
    10  C   -0.000010   0.970187  -5.732192  11.908270   0.618715  -0.142138
    11  C    0.011884   0.357912  -0.592559   0.618715   8.723420  -2.286214
    12  C   -0.052394  -0.408579   0.001899  -0.142138  -2.286214   8.775146
    13  C    0.000447  -3.091937   1.535585  -1.450166  -0.935798   0.220388
    14  C    0.000101   0.343146  -1.858413  -0.453384   0.100622   0.002670
    15  C    0.137819  -0.010732   0.034437  -0.014884   0.810224  -0.990366
    16  C    0.000069   0.046718  -0.303004   0.197252  -0.015837   0.019115
    17  H    0.000172   0.524878  -0.103726   0.052882   0.093417  -0.047878
    18  H   -0.000022  -0.259497   0.662631  -0.143623  -0.029310   0.008163
    19  H    0.000061  -0.013261   0.329019  -0.040806   0.022702   0.003591
    20  H    0.000211  -0.145788   0.131989  -0.087754  -0.026981   0.145335
    21  H   -0.008994   0.035742   0.000075   0.001992  -0.039309   0.330668
    22  H    0.020456  -0.009463  -0.001570   0.004239  -0.198111   0.603023
    23  H   -0.000399   0.012176  -0.017337  -0.037744   0.064777  -0.051787
    24  H   -0.090294  -0.006333  -0.001258   0.000842  -0.068897   0.108907
    25  H   -0.051015   0.004918   0.000323   0.001486   0.006308  -0.058221
    26  H    0.000000  -0.002756  -0.060378  -0.077490   0.002532  -0.000566
    27  H    0.000015   0.000115   0.000033   0.061994  -0.001534   0.000213
    28  H    0.393487  -0.002381  -0.000146   0.000006  -0.007328   0.007927
    29  H    0.389552   0.000737   0.000164  -0.000028   0.017262  -0.020837
    30  H   -0.000023  -0.192461   0.029852  -0.027685  -0.015300   0.018416
              13         14         15         16         17         18
     1  O    0.221361  -0.003885  -0.005772   0.000197   0.001470   0.003186
     2  O   -0.038432   0.009737  -0.021748   0.002494  -0.003160   0.000821
     3  O    0.401321   0.002348   0.000417  -0.000356  -0.000196   0.006148
     4  N    0.449258  -0.128350  -0.067910  -0.003535  -0.071680   0.029489
     5  N    0.085791   0.051866  -0.001214   0.212905   0.005481   0.011366
     6  N    0.004987   0.497415  -0.000075   0.367242  -0.000506  -0.001380
     7  N    0.000447   0.000101   0.137819   0.000069   0.000172  -0.000022
     8  C   -3.091937   0.343146  -0.010732   0.046718   0.524878  -0.259497
     9  C    1.535585  -1.858413   0.034437  -0.303004  -0.103726   0.662631
    10  C   -1.450166  -0.453384  -0.014884   0.197252   0.052882  -0.143623
    11  C   -0.935798   0.100622   0.810224  -0.015837   0.093417  -0.029310
    12  C    0.220388   0.002670  -0.990366   0.019115  -0.047878   0.008163
    13  C    8.791364  -0.255713  -0.041577   0.000784  -0.186209   0.136584
    14  C   -0.255713   7.835720  -0.001637  -0.307941   0.067444  -0.105641
    15  C   -0.041577  -0.001637   6.332008  -0.003365   0.011008   0.000168
    16  C    0.000784  -0.307941  -0.003365   5.316951  -0.005191   0.001841
    17  H   -0.186209   0.067444   0.011008  -0.005191   0.407192  -0.012461
    18  H    0.136584  -0.105641   0.000168   0.001841  -0.012461   0.483498
    19  H   -0.059237   0.063962   0.002277   0.001039   0.009016  -0.027243
    20  H    0.057371  -0.041353  -0.022792   0.004011  -0.009693   0.008207
    21  H   -0.002389   0.002032  -0.010517  -0.000567  -0.000632  -0.000249
    22  H    0.018057  -0.003356  -0.166504   0.002594  -0.001168   0.000283
    23  H   -0.015223   0.020667   0.012252  -0.063334   0.006763  -0.002564
    24  H   -0.003368  -0.000163   0.340831   0.000030   0.000309  -0.000004
    25  H   -0.005495   0.000848   0.432911   0.000033   0.000427  -0.000120
    26  H   -0.010054   0.488427  -0.000002   0.024295   0.001862  -0.001085
    27  H    0.000677  -0.018465  -0.000280   0.430680  -0.000461   0.000400
    28  H   -0.000018  -0.000027  -0.061011   0.000045  -0.000045   0.000010
    29  H   -0.000072   0.000006  -0.034562  -0.000022   0.000018  -0.000001
    30  H    0.207759  -0.002660  -0.000824  -0.000029  -0.005543   0.004884
              19         20         21         22         23         24
     1  O    0.002596  -0.009769  -0.000259   0.002031  -0.001046  -0.000313
     2  O   -0.000685   0.005998   0.006550   0.009679  -0.003938  -0.011507
     3  O    0.003602  -0.003273   0.000428   0.000053  -0.000497  -0.000015
     4  N   -0.017734   0.269515   0.055050   0.025218  -0.015260  -0.013587
     5  N    0.008805   0.004490   0.000302  -0.000041   0.378089  -0.000042
     6  N    0.000823  -0.000334  -0.000015  -0.000004   0.012568  -0.000002
     7  N    0.000061   0.000211  -0.008994   0.020456  -0.000399  -0.090294
     8  C   -0.013261  -0.145788   0.035742  -0.009463   0.012176  -0.006333
     9  C    0.329019   0.131989   0.000075  -0.001570  -0.017337  -0.001258
    10  C   -0.040806  -0.087754   0.001992   0.004239  -0.037744   0.000842
    11  C    0.022702  -0.026981  -0.039309  -0.198111   0.064777  -0.068897
    12  C    0.003591   0.145335   0.330668   0.603023  -0.051787   0.108907
    13  C   -0.059237   0.057371  -0.002389   0.018057  -0.015223  -0.003368
    14  C    0.063962  -0.041353   0.002032  -0.003356   0.020667  -0.000163
    15  C    0.002277  -0.022792  -0.010517  -0.166504   0.012252   0.340831
    16  C    0.001039   0.004011  -0.000567   0.002594  -0.063334   0.000030
    17  H    0.009016  -0.009693  -0.000632  -0.001168   0.006763   0.000309
    18  H   -0.027243   0.008207  -0.000249   0.000283  -0.002564  -0.000004
    19  H    0.506649  -0.011207   0.000621  -0.000468   0.004016  -0.000152
    20  H   -0.011207   0.377114  -0.018307   0.007304  -0.009730   0.005083
    21  H    0.000621  -0.018307   0.571162  -0.070753   0.002226  -0.043795
    22  H   -0.000468   0.007304  -0.070753   0.571118  -0.010485   0.020308
    23  H    0.004016  -0.009730   0.002226  -0.010485   0.352517   0.000031
    24  H   -0.000152   0.005083  -0.043795   0.020308   0.000031   0.689378
    25  H    0.000174  -0.001101   0.015827  -0.017986  -0.000259  -0.078997
    26  H    0.002813  -0.000977   0.000035  -0.000078   0.002844   0.000001
    27  H   -0.000712   0.000608  -0.000051   0.000269  -0.004565   0.000013
    28  H   -0.000017   0.001030   0.008060  -0.001341  -0.000210  -0.008190
    29  H    0.000010  -0.000481   0.001594   0.000400   0.000005  -0.003700
    30  H   -0.003010   0.006551  -0.002043   0.000231  -0.000031   0.000186
              25         26         27         28         29         30
     1  O   -0.000309  -0.000213   0.000050  -0.000003   0.000002   0.194588
     2  O   -0.009877   0.000090   0.000027  -0.000011   0.000098   0.001914
     3  O    0.000020   0.000023  -0.000012  -0.000007   0.000001  -0.023675
     4  N   -0.006410  -0.001352   0.001383  -0.002489   0.000330  -0.001648
     5  N   -0.000429   0.022968  -0.084543  -0.000014  -0.000011   0.000239
     6  N   -0.000022  -0.062771  -0.060026  -0.000001  -0.000001   0.000021
     7  N   -0.051015   0.000000   0.000015   0.393487   0.389552  -0.000023
     8  C    0.004918  -0.002756   0.000115  -0.002381   0.000737  -0.192461
     9  C    0.000323  -0.060378   0.000033  -0.000146   0.000164   0.029852
    10  C    0.001486  -0.077490   0.061994   0.000006  -0.000028  -0.027685
    11  C    0.006308   0.002532  -0.001534  -0.007328   0.017262  -0.015300
    12  C   -0.058221  -0.000566   0.000213   0.007927  -0.020837   0.018416
    13  C   -0.005495  -0.010054   0.000677  -0.000018  -0.000072   0.207759
    14  C    0.000848   0.488427  -0.018465  -0.000027   0.000006  -0.002660
    15  C    0.432911  -0.000002  -0.000280  -0.061011  -0.034562  -0.000824
    16  C    0.000033   0.024295   0.430680   0.000045  -0.000022  -0.000029
    17  H    0.000427   0.001862  -0.000461  -0.000045   0.000018  -0.005543
    18  H   -0.000120  -0.001085   0.000400   0.000010  -0.000001   0.004884
    19  H    0.000174   0.002813  -0.000712  -0.000017   0.000010  -0.003010
    20  H   -0.001101  -0.000977   0.000608   0.001030  -0.000481   0.006551
    21  H    0.015827   0.000035  -0.000051   0.008060   0.001594  -0.002043
    22  H   -0.017986  -0.000078   0.000269  -0.001341   0.000400   0.000231
    23  H   -0.000259   0.002844  -0.004565  -0.000210   0.000005  -0.000031
    24  H   -0.078997   0.000001   0.000013  -0.008190  -0.003700   0.000186
    25  H    0.581173   0.000010  -0.000091   0.011249  -0.009240  -0.000098
    26  H    0.000010   0.504651  -0.001387  -0.000001   0.000000  -0.000114
    27  H   -0.000091  -0.001387   0.478694   0.000003  -0.000004   0.000005
    28  H    0.011249  -0.000001   0.000003   0.471791  -0.048174   0.000061
    29  H   -0.009240   0.000000  -0.000004  -0.048174   0.447070  -0.000011
    30  H   -0.000098  -0.000114   0.000005   0.000061  -0.000011   0.473139
 Mulliken charges:
               1
     1  O   -0.160004
     2  O   -0.362065
     3  O   -0.313016
     4  N    0.020524
     5  N   -0.150931
     6  N   -0.241492
     7  N   -0.425159
     8  C   -0.003950
     9  C   -1.348058
    10  C    0.803367
    11  C   -0.380176
    12  C    0.141220
    13  C   -0.036048
    14  C   -0.306023
    15  C   -0.658579
    16  C    0.074887
    17  H    0.266209
    18  H    0.225520
    19  H    0.212758
    20  H    0.364721
    21  H    0.165519
    22  H    0.196067
    23  H    0.365478
    24  H    0.164698
    25  H    0.183964
    26  H    0.168669
    27  H    0.196952
    28  H    0.237745
    29  H    0.259891
    30  H    0.337313
 Sum of Mulliken charges =  -0.00000
 Mulliken charges with hydrogens summed into heavy atoms:
               1
     1  O    0.177308
     2  O   -0.362065
     3  O   -0.313016
     4  N    0.385246
     5  N    0.214547
     6  N   -0.241492
     7  N    0.072477
     8  C    0.262259
     9  C   -0.909781
    10  C    0.803367
    11  C   -0.380176
    12  C    0.502806
    13  C   -0.036048
    14  C   -0.137354
    15  C   -0.309917
    16  C    0.271839
 Electronic spatial extent (au):  <R**2>=           4708.0073
 Charge=             -0.0000 electrons
 Dipole moment (field-independent basis, Debye):
    X=             -5.8717    Y=              1.0501    Z=             -6.9638  Tot=              9.1691
 Quadrupole moment (field-independent basis, Debye-Ang):
   XX=           -109.0099   YY=           -102.2458   ZZ=            -98.9083
   XY=              3.3053   XZ=             -1.5746   YZ=             -5.5446
 Traceless Quadrupole moment (field-independent basis, Debye-Ang):
   XX=             -5.6219   YY=              1.1422   ZZ=              4.4797
   XY=              3.3053   XZ=             -1.5746   YZ=             -5.5446
 Octapole moment (field-independent basis, Debye-Ang**2):
  XXX=           -202.4418  YYY=             35.3016  ZZZ=            -21.2005  XYY=            -51.2667
  XXY=             83.2680  XXZ=            -19.7530  XZZ=             -7.7716  YZZ=              8.2369
  YYZ=            -21.7243  XYZ=             20.8330
 Hexadecapole moment (field-independent basis, Debye-Ang**3):
 XXXX=          -3847.0189 YYYY=          -1885.4071 ZZZZ=           -326.4625 XXXY=            378.3394
 XXXZ=            -75.3241 YYYX=           -196.2383 YYYZ=           -101.0565 ZZZX=             15.6963
 ZZZY=             -3.8621 XXYY=          -1262.4628 XXZZ=           -743.8938 YYZZ=           -397.7696
 XXYZ=            -30.8334 YYXZ=            -84.2905 ZZXY=             22.0553
 N-N= 1.108289401476D+03 E-N=-4.076419695423D+03  KE= 7.932128880184D+02
 D1PCM: PCM CHGder 1st derivatives, ID1Alg=3 FixD1E=F DoIter=F DoCFld=F I1PDM=0.
 Calling FoFJK, ICntrl=      2127 FMM=F ISym2X=0 I1Cent= 0 IOpClX= 0 NMat=1 NMatS=1 NMatT=0.
 ***** Axes restored to original set *****
 -------------------------------------------------------------------
 Center     Atomic                   Forces (Hartrees/Bohr)
 Number     Number              X              Y              Z
 -------------------------------------------------------------------
      1        8           0.004167296   -0.001152400    0.001359278
      2        8           0.009909853    0.002329986   -0.008167875
      3        8          -0.012260625   -0.018032356   -0.008660791
      4        7          -0.006559725   -0.013373044    0.016460258
      5        7           0.001438520   -0.030115627    0.002827502
      6        7          -0.000253976   -0.008297555    0.000709468
      7        7          -0.005757332   -0.008995206   -0.005977281
      8        6          -0.009221938    0.006086027   -0.003299905
      9        6           0.017316296   -0.005320753    0.001389783
     10        6          -0.022381285    0.048401227   -0.014251721
     11        6           0.003074445    0.000792003   -0.015160745
     12        6          -0.002591822   -0.001405211    0.006413569
     13        6           0.004260918    0.037985640    0.007771652
     14        6           0.021369782    0.001176253    0.008486476
     15        6          -0.002992104    0.004440445    0.002812664
     16        6          -0.004013397   -0.013889581   -0.000128346
     17        1           0.001176885    0.001681183   -0.003416766
     18        1          -0.004714568   -0.002895428    0.000857227
     19        1          -0.003362217    0.002201323    0.001615350
     20        1          -0.002935206    0.002516686    0.005531855
     21        1           0.000616051   -0.001900705   -0.000342578
     22        1          -0.002875461    0.001022918   -0.001193895
     23        1           0.003014004    0.000828521    0.001493705
     24        1           0.005663206    0.003821382    0.003117019
     25        1          -0.000342647    0.000735920   -0.002136553
     26        1          -0.001793436    0.001072954   -0.000746049
     27        1           0.000279202    0.000971992    0.000103742
     28        1          -0.000338062   -0.001636783    0.001819196
     29        1           0.001863839    0.000109004   -0.002703177
     30        1           0.008243505   -0.009158815    0.003416937
 -------------------------------------------------------------------
 Cartesian Forces:  Max     0.048401227 RMS     0.009918271

 GradGradGradGradGradGradGradGradGradGradGradGradGradGradGradGradGradGrad
 Berny optimization.
 FormGI is forming the generalized inverse of G from B-inverse, IUseBI=4.
 Internal  Forces:  Max     0.031739597 RMS     0.006008988
 Search for a local minimum.
 Step number   1 out of a maximum of  160
 All quantities printed in internal units (Hartrees-Bohrs-Radians)
 Mixed Optimization -- RFO/linear search
 Second derivative matrix not updated -- first step.
 ITU=  0
     Eigenvalues ---    0.00306   0.00436   0.00478   0.00522   0.00619
     Eigenvalues ---    0.00926   0.00929   0.01070   0.01118   0.01428
     Eigenvalues ---    0.01643   0.01860   0.02263   0.02291   0.02329
     Eigenvalues ---    0.02403   0.02557   0.02603   0.04038   0.04169
     Eigenvalues ---    0.04449   0.04487   0.04560   0.05087   0.05291
     Eigenvalues ---    0.05379   0.05509   0.06669   0.09178   0.09352
     Eigenvalues ---    0.09450   0.12646   0.12780   0.12847   0.15964
     Eigenvalues ---    0.16000   0.16000   0.16000   0.16000   0.16000
     Eigenvalues ---    0.16000   0.17438   0.18566   0.21915   0.21916
     Eigenvalues ---    0.21979   0.22008   0.22670   0.23450   0.25000
     Eigenvalues ---    0.25000   0.25000   0.25000   0.25000   0.28986
     Eigenvalues ---    0.29893   0.30200   0.30519   0.31238   0.33908
     Eigenvalues ---    0.33913   0.33928   0.33990   0.33999   0.34145
     Eigenvalues ---    0.34177   0.35898   0.35970   0.37261   0.39127
     Eigenvalues ---    0.44458   0.44475   0.44748   0.44931   0.45656
     Eigenvalues ---    0.47793   0.49019   0.51220   0.52419   0.54041
     Eigenvalues ---    0.54869   0.61313   0.91856   0.92517
 RFO step:  Lambda=-1.63058288D-02 EMin= 3.05802829D-03
 Linear search not attempted -- first point.
 Iteration  1 RMS(Cart)=  0.09156524 RMS(Int)=  0.00192270
 Iteration  2 RMS(Cart)=  0.00289374 RMS(Int)=  0.00022325
 Iteration  3 RMS(Cart)=  0.00000492 RMS(Int)=  0.00022324
 Iteration  4 RMS(Cart)=  0.00000000 RMS(Int)=  0.00022324
 Variable       Old X    -DE/DX   Delta X   Delta X   Delta X     New X
                                 (Linear)    (Quad)   (Total)
    R1        2.55994  -0.01504   0.00000  -0.02702  -0.02702   2.53292
    R2        1.85354  -0.01063   0.00000  -0.02011  -0.02011   1.83343
    R3        2.32089  -0.00857   0.00000  -0.00917  -0.00917   2.31172
    R4        2.31794  -0.02339   0.00000  -0.02484  -0.02484   2.29310
    R5        2.72758   0.00876   0.00000   0.02148   0.02148   2.74906
    R6        2.62160  -0.01674   0.00000  -0.03387  -0.03387   2.58774
    R7        1.92056  -0.00589   0.00000  -0.01266  -0.01266   1.90791
    R8        2.54141   0.03174   0.00000   0.05684   0.05702   2.59843
    R9        2.58344   0.00285   0.00000   0.00334   0.00321   2.58665
   R10        1.91222  -0.00344   0.00000  -0.00727  -0.00727   1.90494
   R11        2.59344   0.01347   0.00000   0.02583   0.02579   2.61923
   R12        2.48397   0.00267   0.00000   0.00143   0.00117   2.48514
   R13        2.75455   0.01225   0.00000   0.03151   0.03151   2.78605
   R14        1.92610  -0.00215   0.00000  -0.00466  -0.00466   1.92144
   R15        1.92591  -0.00300   0.00000  -0.00651  -0.00651   1.91939
   R16        2.90032   0.00563   0.00000   0.01840   0.01840   2.91873
   R17        2.87566   0.00818   0.00000   0.02570   0.02570   2.90137
   R18        2.07477  -0.00356   0.00000  -0.01001  -0.01001   2.06475
   R19        2.85560  -0.00164   0.00000  -0.00498  -0.00498   2.85062
   R20        2.07451  -0.00503   0.00000  -0.01415  -0.01415   2.06036
   R21        2.07485  -0.00110   0.00000  -0.00311  -0.00311   2.07175
   R22        2.54716   0.02229   0.00000   0.04199   0.04222   2.58938
   R23        2.86941   0.00554   0.00000   0.01723   0.01723   2.88664
   R24        2.88177   0.00023   0.00000   0.00074   0.00074   2.88251
   R25        2.07332  -0.00100   0.00000  -0.00281  -0.00281   2.07050
   R26        2.07347  -0.00176   0.00000  -0.00495  -0.00495   2.06852
   R27        2.04129  -0.00073   0.00000  -0.00195  -0.00195   2.03934
   R28        2.07087   0.00136   0.00000   0.00381   0.00381   2.07468
   R29        2.07033  -0.00215   0.00000  -0.00601  -0.00601   2.06432
   R30        2.04241  -0.00101   0.00000  -0.00269  -0.00269   2.03972
    A1        1.95409  -0.01317   0.00000  -0.07472  -0.07472   1.87936
    A2        2.13057   0.00231   0.00000   0.00901   0.00864   2.13921
    A3        2.06926   0.00048   0.00000   0.00330   0.00290   2.07217
    A4        2.08047  -0.00289   0.00000  -0.01594  -0.01629   2.06418
    A5        1.84967   0.01024   0.00000   0.04358   0.04366   1.89332
    A6        2.22814  -0.00527   0.00000  -0.02262  -0.02266   2.20548
    A7        2.20538  -0.00498   0.00000  -0.02096  -0.02100   2.18438
    A8        1.82837   0.00753   0.00000   0.01883   0.01845   1.84682
    A9        1.91458   0.00113   0.00000   0.00704   0.00701   1.92159
   A10        1.90890   0.00196   0.00000   0.01173   0.01170   1.92060
   A11        1.85485  -0.00127   0.00000  -0.00588  -0.00594   1.84891
   A12        1.94530  -0.00049   0.00000   0.00873   0.00828   1.95357
   A13        1.93658   0.00686   0.00000   0.05374   0.05367   1.99025
   A14        1.88364  -0.00118   0.00000  -0.00784  -0.00759   1.87605
   A15        1.91968  -0.00349   0.00000  -0.00914  -0.01013   1.90955
   A16        1.92993  -0.00038   0.00000  -0.02715  -0.02746   1.90247
   A17        1.84597  -0.00129   0.00000  -0.02001  -0.02034   1.82563
   A18        1.96362   0.00826   0.00000   0.03724   0.03730   2.00091
   A19        1.92346  -0.00400   0.00000  -0.03175  -0.03191   1.89155
   A20        1.93407  -0.00503   0.00000  -0.02651  -0.02736   1.90672
   A21        1.88099  -0.00225   0.00000  -0.00903  -0.00856   1.87243
   A22        1.90352   0.00068   0.00000   0.02505   0.02520   1.92872
   A23        1.85419   0.00209   0.00000   0.00392   0.00326   1.85745
   A24        2.11693   0.01650   0.00000   0.05732   0.05711   2.17404
   A25        1.87759  -0.01631   0.00000  -0.05197  -0.05157   1.82602
   A26        2.28866  -0.00019   0.00000  -0.00535  -0.00556   2.28311
   A27        2.18107  -0.01879   0.00000  -0.07054  -0.07055   2.11052
   A28        2.15291   0.00387   0.00000   0.01454   0.01453   2.16744
   A29        1.94920   0.01492   0.00000   0.05601   0.05600   2.00520
   A30        1.96009   0.00436   0.00000   0.02311   0.02304   1.98314
   A31        1.88596  -0.00106   0.00000  -0.00009  -0.00007   1.88589
   A32        1.88548   0.00014   0.00000   0.01017   0.01020   1.89567
   A33        1.92376  -0.00107   0.00000  -0.00599  -0.00613   1.91763
   A34        1.92346  -0.00207   0.00000  -0.01130  -0.01153   1.91193
   A35        1.88285  -0.00044   0.00000  -0.01697  -0.01710   1.86575
   A36        2.13260   0.00345   0.00000   0.01298   0.01295   2.14555
   A37        2.00428  -0.00261   0.00000  -0.00978  -0.00981   1.99447
   A38        2.14629  -0.00084   0.00000  -0.00314  -0.00317   2.14312
   A39        1.91778   0.00147   0.00000   0.01229   0.01250   1.93027
   A40        2.11568   0.00140   0.00000   0.00599   0.00589   2.12157
   A41        2.24973  -0.00288   0.00000  -0.01829  -0.01839   2.23134
   A42        1.92623  -0.00139   0.00000  -0.00381  -0.00399   1.92223
   A43        1.91083   0.00652   0.00000   0.06321   0.06334   1.97416
   A44        1.90450  -0.00121   0.00000  -0.01581  -0.01597   1.88853
   A45        1.92524  -0.00357   0.00000  -0.02070  -0.02113   1.90410
   A46        1.92324   0.00016   0.00000  -0.01538  -0.01573   1.90751
   A47        1.87294  -0.00041   0.00000  -0.00700  -0.00732   1.86562
   A48        1.95138  -0.00294   0.00000  -0.02273  -0.02304   1.92834
   A49        2.13081   0.00158   0.00000   0.01201   0.01217   2.14298
   A50        2.20100   0.00135   0.00000   0.01071   0.01087   2.21187
    D1        0.00152  -0.00023   0.00000  -0.00853  -0.00859  -0.00706
    D2        3.13849   0.00012   0.00000   0.00569   0.00575  -3.13895
    D3        2.64072  -0.00043   0.00000  -0.02188  -0.02214   2.61858
    D4       -1.49662  -0.00036   0.00000   0.01106   0.01149  -1.48513
    D5        0.51833   0.00112   0.00000   0.01158   0.01171   0.53004
    D6       -0.58309  -0.00208   0.00000  -0.07427  -0.07472  -0.65782
    D7        1.56275  -0.00200   0.00000  -0.04132  -0.04109   1.52166
    D8       -2.70548  -0.00052   0.00000  -0.04081  -0.04088  -2.74636
    D9        0.00003  -0.00166   0.00000  -0.05270  -0.05240  -0.05237
   D10        3.14076  -0.00144   0.00000  -0.04497  -0.04493   3.09583
   D11       -3.05883  -0.00016   0.00000  -0.00087  -0.00091  -3.05975
   D12        0.08189   0.00006   0.00000   0.00686   0.00656   0.08845
   D13       -3.14155  -0.00020   0.00000  -0.00538  -0.00545   3.13619
   D14       -0.00021  -0.00001   0.00000   0.00026   0.00023   0.00002
   D15        0.00047  -0.00032   0.00000  -0.00856  -0.00860  -0.00813
   D16       -3.14138  -0.00013   0.00000  -0.00292  -0.00292   3.13889
   D17       -0.00014  -0.00001   0.00000  -0.00070  -0.00069  -0.00083
   D18        3.14152  -0.00008   0.00000  -0.00223  -0.00221   3.13931
   D19        3.14104   0.00010   0.00000   0.00243   0.00241  -3.13974
   D20       -0.00049   0.00003   0.00000   0.00091   0.00089   0.00041
   D21       -0.00055  -0.00005   0.00000  -0.00066  -0.00071  -0.00126
   D22        3.14118   0.00002   0.00000   0.00104   0.00098  -3.14102
   D23        0.00042   0.00004   0.00000   0.00083   0.00084   0.00126
   D24       -3.14125   0.00011   0.00000   0.00243   0.00243  -3.13882
   D25       -1.05921  -0.00028   0.00000  -0.02358  -0.02368  -1.08290
   D26        1.06313  -0.00136   0.00000  -0.01051  -0.01030   1.05283
   D27        3.10822   0.00118   0.00000   0.00807   0.00802   3.11623
   D28       -3.08717  -0.00051   0.00000  -0.02721  -0.02735  -3.11452
   D29       -0.96483  -0.00159   0.00000  -0.01414  -0.01397  -0.97880
   D30        1.08025   0.00095   0.00000   0.00444   0.00436   1.08461
   D31       -1.36449   0.00135   0.00000   0.00107   0.00099  -1.36350
   D32        2.81900   0.00147   0.00000   0.00972   0.00994   2.82894
   D33        0.77171   0.00444   0.00000   0.04069   0.04019   0.81190
   D34        2.76321  -0.00461   0.00000  -0.06732  -0.06705   2.69616
   D35        0.66352  -0.00449   0.00000  -0.05866  -0.05810   0.60542
   D36       -1.38377  -0.00152   0.00000  -0.02769  -0.02784  -1.41162
   D37        0.73080  -0.00071   0.00000  -0.02128  -0.02134   0.70946
   D38       -1.36890  -0.00059   0.00000  -0.01263  -0.01239  -1.38129
   D39        2.86699   0.00238   0.00000   0.01834   0.01787   2.88486
   D40       -0.07887  -0.00047   0.00000  -0.02730  -0.02745  -0.10633
   D41        3.05805  -0.00010   0.00000  -0.01290  -0.01309   3.04496
   D42        2.08169   0.00122   0.00000   0.01470   0.01471   2.09640
   D43       -1.06457   0.00159   0.00000   0.02910   0.02907  -1.03550
   D44       -2.11710  -0.00183   0.00000  -0.03395  -0.03375  -2.15084
   D45        1.01983  -0.00146   0.00000  -0.01955  -0.01939   1.00044
   D46        1.01096   0.00074   0.00000   0.02657   0.02693   1.03789
   D47       -2.13032   0.00051   0.00000   0.01943   0.01967  -2.11064
   D48        3.13498  -0.00059   0.00000   0.00414   0.00427   3.13925
   D49       -0.00629  -0.00082   0.00000  -0.00300  -0.00299  -0.00929
   D50       -1.14238   0.00102   0.00000   0.01684   0.01653  -1.12586
   D51        1.99953   0.00079   0.00000   0.00970   0.00927   2.00880
   D52        0.00048   0.00003   0.00000   0.00023   0.00027   0.00075
   D53       -3.14126  -0.00004   0.00000  -0.00164  -0.00155   3.14037
   D54       -3.14140   0.00025   0.00000   0.00664   0.00646  -3.13493
   D55        0.00004   0.00017   0.00000   0.00477   0.00464   0.00469
   D56       -0.00084   0.00004   0.00000   0.00794   0.00808   0.00724
   D57        2.12472   0.00076   0.00000   0.01510   0.01523   2.13995
   D58       -2.12569  -0.00024   0.00000   0.00045   0.00042  -2.12527
   D59       -3.14158  -0.00016   0.00000   0.00040   0.00038  -3.14121
   D60       -1.01602   0.00056   0.00000   0.00756   0.00753  -1.00849
   D61        1.01675  -0.00044   0.00000  -0.00709  -0.00728   1.00947
   D62       -3.13126   0.00220   0.00000   0.03242   0.03232  -3.09894
   D63        1.03814  -0.00270   0.00000  -0.03064  -0.03042   1.00772
   D64       -1.02669  -0.00010   0.00000   0.00026   0.00022  -1.02647
   D65        1.04805   0.00137   0.00000   0.02121   0.02115   1.06920
   D66       -1.06573  -0.00354   0.00000  -0.04185  -0.04160  -1.10733
   D67       -3.13056  -0.00093   0.00000  -0.01095  -0.01096  -3.14152
   D68       -1.02822   0.00387   0.00000   0.05298   0.05277  -0.97545
   D69        3.14118  -0.00104   0.00000  -0.01009  -0.00997   3.13121
   D70        1.07635   0.00157   0.00000   0.02082   0.02067   1.09702
         Item               Value     Threshold  Converged?
 Maximum Force            0.031740     0.000450     NO 
 RMS     Force            0.006009     0.000300     NO 
 Maximum Displacement     0.428733     0.001800     NO 
 RMS     Displacement     0.091475     0.001200     NO 
 Predicted change in Energy=-8.888435D-03
 GradGradGradGradGradGradGradGradGradGradGradGradGradGradGradGradGradGrad

                          Input orientation:                          
 ---------------------------------------------------------------------
 Center     Atomic      Atomic             Coordinates (Angstroms)
 Number     Number       Type             X           Y           Z
 ---------------------------------------------------------------------
      1          8           0       -1.133926    2.963669   -0.595532
      2          8           0       -1.835573    0.127434    1.440129
      3          8           0        0.751092    3.471345    0.511908
      4          7           0       -0.733054    0.310446   -0.520574
      5          7           0        1.889530   -1.624207   -0.394445
      6          7           0        3.904865   -1.868903    0.466686
      7          7           0       -4.926802   -2.225308   -0.420055
      8          6           0        0.334084    1.141896    0.014383
      9          6           0        1.674287    0.899900   -0.714208
     10          6           0        2.402156   -0.352361   -0.292817
     11          6           0       -1.781948   -0.125234    0.244398
     12          6           0       -2.834841   -0.935226   -0.509742
     13          6           0        0.016681    2.644067    0.013185
     14          6           0        3.651291   -0.524676    0.243405
     15          6           0       -3.989588   -1.405256    0.369093
     16          6           0        2.824588   -2.507542    0.073525
     17          1           0        0.451794    0.886102    1.070098
     18          1           0        2.334416    1.742945   -0.508663
     19          1           0        1.501844    0.898008   -1.796881
     20          1           0       -0.764293    0.141659   -1.515497
     21          1           0       -3.217939   -0.315621   -1.328157
     22          1           0       -2.347158   -1.801515   -0.967880
     23          1           0        0.980049   -1.875468   -0.749243
     24          1           0       -4.466467   -0.531933    0.833015
     25          1           0       -3.597349   -2.021553    1.181277
     26          1           0        4.380934    0.234555    0.479640
     27          1           0        2.659176   -3.573817    0.100844
     28          1           0       -5.328400   -1.670984   -1.171914
     29          1           0       -5.708210   -2.516229    0.159953
     30          1           0       -1.237437    3.926906   -0.542931
 ---------------------------------------------------------------------
                    Distance matrix (angstroms):
                    1          2          3          4          5
     1  O    0.000000
     2  O    3.560962   0.000000
     3  O    2.244427   4.328298   0.000000
     4  N    2.684383   2.256856   3.641427   0.000000
     5  N    5.498212   4.506695   5.299261   3.261401   0.000000
     6  N    7.061974   6.155127   6.202143   5.218671   2.205220
     7  N    6.429788   4.307131   8.096844   4.901803   6.842833
     8  C    2.417831   2.787345   2.418213   1.454741   3.199669
     9  C    3.487017   4.190106   2.994658   2.486008   2.553369
    10  C    4.857115   4.603439   4.241971   3.212588   1.375029
    11  C    3.265997   1.223310   4.407179   1.369372   4.016814
    12  C    4.254627   2.435114   5.772395   2.443220   4.775738
    13  C    1.340365   3.435179   1.213455   2.508543   4.678876
    14  C    5.980858   5.653589   4.944838   4.528086   2.172469
    15  C    5.307807   2.852374   6.802623   3.786840   5.932534
    16  C    6.786134   5.525197   6.343394   4.577206   1.368798
    17  H    3.099213   2.438144   2.661698   2.065304   3.242471
    18  H    3.677922   4.878163   2.556530   3.385493   3.398335
    19  H    3.557735   4.712788   3.537824   2.639878   2.911820
    20  H    2.991104   3.143814   4.182531   1.009622   3.379026
    21  H    3.953933   3.125802   5.786203   2.686783   5.354480
    22  H    4.931283   3.127471   6.292216   2.695514   4.278995
    23  H    5.282970   4.090562   5.498303   2.786616   1.008053
    24  H    5.036448   2.779380   6.584243   4.059578   6.564938
    25  H    5.837631   2.790878   7.037678   4.066780   5.722466
    26  H    6.246418   6.291182   4.863497   5.211435   3.228949
    27  H    7.590209   5.974588   7.310544   5.194311   2.153751
    28  H    6.277406   4.717723   8.138735   5.046535   7.259832
    29  H    7.178030   4.860568   8.814618   5.762412   7.669989
    30  H    0.970210   4.327387   2.296621   3.651533   6.372977
[...]
 4,0.03016467,-0.00000061,-0.00000147,-0.00000321,-0.00000529,-0.000002
 10,0.00000664,0.00002244,-0.00000301,-0.00000767,-0.00000202,-0.000005
 14,-0.00000139,-0.00000241,-0.00004852,0.00004099,-0.00007171,0.000394
 83,-0.00040472,0.00015067,0.00096473,-0.00038350,-0.00001407,0.0000116
 9,0.00000692,-0.06997602,0.28901749,0.00001924,0.00001289,-0.00000340,
 -0.00017286,-0.00017620,0.00023192,0.00000755,-0.00000119,0.00000203,-
 0.00009210,0.00006231,-0.00005041,0.00000238,0.00000261,-0.00000060,0.
 00000107,0.00000011,0.00000134,-0.00040688,-0.01940974,0.00214810,0.00
 001775,-0.00002102,-0.00002031,0.00000631,0.00000344,0.00000270,-0.000
 00155,-0.00000292,-0.00000079,-0.00047547,-0.00037688,0.00000851,0.006
 76973,-0.01255941,0.00152923,-0.00002492,0.00000363,-0.00000579,0.0000
 0101,0.00000025,0.00000051,-0.00904349,0.03085981,-0.05830566,-0.00000
 201,0.00000151,-0.00000187,-0.00000227,-0.00000247,0.00000004,0.000000
 46,0.,0.00000041,-0.00000145,-0.00000044,0.00000114,0.00003625,0.00001
 898,-0.00000735,-0.00092640,-0.00040467,0.00068499,0.00264148,-0.00079
 439,-0.00000448,-0.00000732,-0.00000123,0.00000254,0.00972730,-0.02698
 002,0.05525755,0.00001268,-0.00000700,-0.00000151,-0.00009257,0.000292
 65,-0.00138790,-0.00000234,-0.00002976,0.00000805,-0.00007787,-0.00002
 251,-0.00043457,-0.00000095,-0.00000123,-0.00000337,-0.00000352,0.0000
 0273,-0.00000393,-0.00389163,0.00110731,-0.02683152,0.00004239,0.00000
 042,-0.00011720,0.00000663,-0.00000918,-0.00000554,0.00000544,-0.00000
 084,0.00000672,0.00099167,-0.00038062,0.00199796,-0.00084598,-0.006617
 46,0.03125946,-0.00002849,0.00001862,-0.00002776,-0.00000008,0.0000006
 1,-0.00000079,-0.04746411,0.00352134,-0.00740809,0.00000330,-0.0000016
 6,0.00000219,-0.00004965,-0.00005009,-0.00000337,-0.00000655,0.0000002
 7,0.00000276,0.00000318,0.00000190,0.00000071,0.00023979,0.00033598,-0
 .00003770,-0.00582081,0.00034776,0.00222567,0.00171742,0.00004057,-0.0
 0064726,0.00001324,-0.00000825,-0.00000255,0.00059690,0.00295605,-0.00
 962889,0.05683593,-0.00001102,0.00000895,-0.00000204,0.00027257,-0.000
 24148,-0.00052772,0.00000101,0.00000982,-0.00000160,-0.00002617,0.0001
 3814,-0.00021141,0.00000101,0.00000098,-0.00000028,0.00000011,-0.00000
 169,0.00000057,-0.00287359,0.00304232,-0.02664837,-0.00001429,-0.00001
 277,-0.00000070,-0.00000394,-0.00000045,-0.00000312,0.00000009,0.00000
 082,-0.00000247,-0.00017663,0.00007964,0.00120266,0.00042541,0.0005067
 1,-0.00510688,0.00000584,-0.00002191,0.00000727,-0.00000052,0.00000004
 ,-0.00000037,0.00320319,-0.06496939,0.06183468,0.00000130,-0.00000106,
 0.00000091,-0.00000764,-0.00000609,0.00000685,0.00000071,0.00000025,0.
 00000033,0.00000246,-0.00000154,-0.00000037,-0.00000169,0.00000650,-0.
 00001355,0.00053662,0.00089051,-0.00080708,-0.00058765,0.00061283,-0.0
 0050664,-0.00000094,0.00000203,-0.00000018,0.00089640,-0.00672111,0.02
 955031,0.00104756,0.06762831,-0.00000438,0.00001183,-0.00000211,-0.001
 65220,-0.00042854,0.00159431,0.00000439,0.00004341,0.00000198,0.000228
 65,0.00024390,0.00018906,0.00000567,-0.00000051,0.00000213,0.00000355,
 -0.00000358,0.00000498,-0.00327751,-0.00057971,-0.01467201,-0.00010511
 ,-0.00000235,-0.00003595,0.00000488,0.00001246,0.00002203,-0.00000534,
 0.00000171,-0.00000780,-0.00100793,-0.00086512,-0.00252343,0.00256958,
 0.00356914,-0.01298783,0.00003352,-0.00002521,0.00000933,-0.00000009,-
 0.00000055,0.00000069,-0.00973141,0.05509471,-0.29539548,-0.00000214,0
 .00000143,-0.00000387,0.00001489,0.00001006,0.00003016,0.00000999,-0.0
 0000113,-0.00000286,-0.00000578,-0.00000166,0.00000077,-0.00000306,-0.
 00009778,0.00013995,0.00211990,-0.00069096,0.00023806,-0.00020770,-0.0
 0022243,0.00081514,-0.00001115,0.00000693,0.00000379,0.00000727,0.0021
 4942,-0.00261889,0.01320291,-0.05654131,0.32391215,-0.00001674,0.00003
 942,-0.00000297,0.00000142,-0.00000870,0.00005984,0.00001699,0.0000353
 0,0.00000625,-0.00008882,0.00001618,0.00006045,-0.00164275,0.00101405,
 -0.00482648,0.00561494,0.00488965,0.00878565,-0.00000400,-0.00000084,0
 .00000142,-0.00011745,0.00008029,-0.00009399,-0.00056306,-0.00043135,0
 .00143075,-0.00474058,-0.01569969,-0.00522404,0.00006368,0.00004833,-0
 .00010954,-0.00000311,-0.00000076,0.00000400,-0.00006345,-0.00007274,0
 .00002708,-0.14644370,-0.10738994,-0.10163292,0.00000500,-0.00000254,-
 0.00000344,0.00178255,0.00277619,-0.00193936,-0.00002783,0.00000706,-0
 .00001624,-0.00011746,0.00032316,-0.00016184,0.00024335,0.00010712,0.0
 0003591,0.00001986,-0.00002260,0.00000576,0.00000044,0.00000068,-0.000
 00010,-0.00000158,-0.00000099,-0.00000041,0.00080014,-0.00082470,-0.00
 083530,-0.00000055,0.00000094,0.00000020,-0.00000059,-0.00000003,0.000
 00071,0.14441729,-0.00001962,0.00002360,-0.00001163,-0.00000533,-0.000
 00279,0.00001582,0.00000279,0.00002148,0.00000226,-0.00001638,-0.00000
 447,0.00001892,0.00250191,0.00022451,0.00145712,-0.01722516,-0.0177630
 6,-0.01446002,-0.00000191,0.00000004,0.00000078,-0.00003929,0.00009233
 ,-0.00004137,-0.00046629,0.00067601,-0.00016530,0.00548177,0.00821358,
 0.00490613,0.00001227,0.00000853,-0.00002893,-0.00000126,-0.00000133,0
 .00000354,-0.00000528,-0.00005763,0.00002445,-0.10586776,-0.17293393,-
 0.09503997,0.00000198,-0.00000147,-0.00000210,0.00190741,-0.00587589,0
 .00031972,0.00000865,0.00000090,0.00000650,-0.00021362,-0.00013023,-0.
 00006874,-0.00008771,0.00005342,-0.00006210,0.00000088,0.00000237,0.00
 000122,0.00000014,0.00000047,0.00000006,-0.00000030,-0.00000107,-0.000
 00028,0.00009242,0.00081655,-0.00002447,-0.00000031,0.00000036,0.00000
 014,-0.00000013,-0.00000014,0.00000013,0.11496411,0.18679886,0.0000022
 0,-0.00001062,0.00000488,-0.00001117,-0.00000587,-0.00000254,-0.000008
 06,0.00000378,0.00000145,0.00005182,0.00004535,-0.00002597,-0.00488064
 ,0.00026643,0.00118536,0.00646195,0.00236845,-0.00017095,-0.00000153,-
 0.00000022,0.00000023,0.00010233,-0.00001781,0.00013195,0.00144067,-0.
 00057806,-0.00135402,-0.00365122,-0.01071447,-0.00363030,0.00003875,0.
 00000175,0.00000767,-0.00000525,0.00000743,-0.00000184,0.00002756,0.00
 001754,-0.00002121,-0.10115089,-0.09616589,-0.11388566,0.00000120,-0.0
 0000015,-0.00000050,-0.00195885,0.00101031,0.00338759,0.00000212,-0.00
 001874,0.00000922,0.00003587,0.00051205,0.00010589,-0.00016115,0.00003
 972,-0.00003310,0.00001264,-0.00000625,0.00000524,-0.00000003,-0.00000
 017,0.00000013,0.00000362,0.00000174,0.00000016,-0.00066377,-0.0007930
 1,0.00116344,-0.00000064,0.00000008,-0.00000011,-0.00000030,0.00000012
 ,-0.00000027,0.10469071,0.10407289,0.11217665,-0.00003645,0.00001696,-
 0.00001291,-0.00000762,-0.00001499,0.00005862,-0.00004666,0.00004755,0
 .00001600,-0.00010286,-0.00000897,0.00007635,0.00429242,0.02285298,0.0
 0626603,-0.00124908,-0.02333347,0.00013873,-0.00000378,-0.00000183,0.0
 0000084,0.00008332,-0.00021145,-0.00004304,0.00147260,0.00091273,0.000
 05377,-0.00257093,0.00086605,-0.00406404,0.00006039,0.00005260,-0.0001
 1009,-0.00000241,-0.00000668,0.00000906,0.00008303,-0.00005758,0.00001
 770,-0.00022996,-0.00128404,-0.00553343,0.00000561,-0.00000409,-0.0000
 0496,-0.04933761,-0.02881114,-0.02067081,-0.00001357,-0.00000189,0.000
 00321,-0.00027628,0.00042264,-0.00012354,0.00009088,-0.00004219,0.0000
 5853,0.00001830,-0.00001719,0.00000614,0.00000014,0.00000112,-0.000000
 61,-0.00000475,-0.00000146,-0.00000118,-0.00032909,-0.00057599,0.00099
 859,-0.00000040,0.00000015,-0.00000004,-0.00000057,0.00000014,0.000000
 31,0.00086932,-0.00102292,-0.00037966,0.04723355,0.00004489,-0.0000428
 5,0.00001418,0.00000853,0.00001781,-0.00007154,0.00003089,-0.00005169,
 -0.00000478,0.00011978,-0.00000634,-0.00007191,-0.00416227,-0.01427601
 ,-0.00463120,-0.00264629,-0.00515589,-0.00206794,0.00000589,0.00000160
 ,-0.00000140,-0.00010700,-0.00002339,0.00003770,-0.00046237,-0.0003494
 7,-0.00043803,0.00307364,0.00117901,0.00212805,-0.00007765,-0.00006544
 ,0.00013228,0.00000454,0.00000207,-0.00000864,-0.00003048,0.00008821,-
 0.00002265,-0.00141467,0.00178729,-0.00161033,-0.00000724,0.00000450,0
 .00000593,-0.02500943,-0.33892845,-0.05247338,0.00000584,-0.00000150,0
 .00000037,0.00016216,-0.00017239,0.00005196,0.00002524,0.00006009,-0.0
 0000544,-0.00002723,0.00001936,-0.00000739,0.,-0.00000067,0.00000052,0
 .00000235,0.00000492,0.00000099,0.00008348,-0.00026962,0.00020990,0.00
 000053,-0.00000066,-0.00000006,0.00000042,-0.00000026,-0.00000048,0.00
 015092,-0.00016137,-0.00003746,0.03022484,0.35633839,-0.00001978,0.000
 03113,-0.00000045,0.00000253,-0.00000588,0.00001725,-0.00001206,0.0000
 1302,-0.00000647,-0.00003778,-0.00000396,-0.00000273,0.00359691,0.0160
 4886,0.00377560,0.00238915,-0.01795214,-0.00479822,-0.00000213,-0.0000
 0060,-0.00000012,0.00014472,0.00022868,0.00000563,-0.00032336,0.000151
 78,0.00119319,-0.00370110,0.00056212,0.00013380,0.00001980,0.00002446,
 -0.00003641,0.00000006,0.00000166,0.00000154,-0.00003860,-0.00002706,0
 .00000448,-0.00555846,-0.00140989,0.00239710,0.00000188,-0.00000130,-0
 .00000163,-0.02041568,-0.05529721,-0.04780013,-0.00000815,0.00001002,-
 0.00000067,0.00003324,0.00008601,0.00003565,-0.00004610,-0.00014188,-0
 .00002232,0.00001446,-0.00000448,0.00000200,-0.00000077,0.00000081,-0.
 00000058,0.00000048,-0.00000075,0.00000230,0.00097547,-0.00025828,-0.0
 0099346,-0.00000039,0.00000039,0.00000028,0.00000038,-0.00000008,-0.00
 000010,-0.00025395,-0.00092089,0.00094421,0.02324291,0.05886810,0.0451
 5067,-0.00000902,0.00001402,-0.00000321,-0.00011663,0.00010748,0.00067
 104,0.00000490,0.00003184,-0.00000025,0.00009716,0.00010644,0.00004490
 ,0.00000475,0.00000048,0.00000130,0.00000418,-0.00000245,0.00000337,-0
 .06629084,0.00242716,-0.06821197,-0.00004604,-0.00001244,-0.00002682,0
 .00000082,0.00000980,0.00000765,-0.00000536,0.00000049,-0.00000334,-0.
 00022993,-0.00063191,-0.00038775,0.00114618,0.00072817,-0.00166632,0.0
 0001579,-0.00003692,0.00000824,-0.00000004,0.,-0.00000073,-0.00408450,
 0.00930472,-0.02522583,-0.00000264,0.00000088,-0.00000255,0.00000040,0
 .00000136,0.00001312,0.00000640,-0.00000091,-0.00000216,-0.00000067,-0
 .00000158,0.00000046,-0.00003595,-0.00004695,0.00002745,-0.00055518,-0
 .00017928,0.00065581,-0.00008870,-0.00001646,0.00003658,-0.00000768,0.
 00000443,0.00000273,0.00082185,-0.00039314,0.00096487,-0.00294150,-0.0
 0340201,-0.00194067,0.00000024,0.00000029,0.00000024,0.00000008,-0.000
 00019,-0.00000015,0.06667075,0.00000944,-0.00000517,0.00000083,-0.0002
 3656,-0.00001322,0.00015417,0.00000353,-0.00000030,0.00000130,0.000011
 65,-0.00005288,0.00006006,-0.00000062,-0.00000086,-0.00000035,-0.00000
 090,-0.00000052,-0.00000073,0.00425183,-0.05272134,0.13061309,0.000001
 05,-0.00000338,-0.00000164,0.00000047,0.00000106,0.00000204,0.00000078
 ,0.00000179,-0.00000066,0.00003724,-0.00003717,-0.00026810,0.00083440,
 0.00061116,0.00011701,-0.00001003,0.00000767,-0.00000239,-0.00000029,-
 0.00000048,0.00000018,-0.00634587,0.00132088,-0.02937467,0.00000173,-0
 .00000026,0.00000037,0.00000324,0.00000249,0.00000115,0.00000026,-0.00
 000006,-0.00000003,-0.00000097,0.00000040,-0.00000048,-0.00001237,0.00
 000211,0.00001364,-0.00006372,0.00009550,0.00034433,0.00004965,-0.0001
 7036,0.00006911,0.00000217,0.00000105,0.00000043,0.00095167,0.00182292
 ,-0.00061794,-0.00319252,-0.00193425,-0.00184166,-0.00000007,-0.000000
 17,0.,0.00000013,-0.00000012,0.00000037,0.00126755,0.05344269,0.000001
 96,-0.00000156,0.00000111,0.00003896,0.00007111,0.00022825,0.00000183,
 0.00000216,0.00000029,0.00001085,0.00001346,-0.00001306,0.00000059,-0.
 00000011,-0.00000049,-0.00000041,-0.00000043,-0.00000032,-0.04882237,0
 .08437557,-0.37976145,-0.00000620,0.00000305,-0.00000334,-0.00000048,-
 0.00000064,0.00000033,-0.00000050,0.00000011,0.00000034,-0.00015034,-0
 .00027489,-0.00015859,0.00009041,0.00017311,0.00119747,-0.00000107,-0.
 00000114,-0.00000014,-0.00000009,0.00000026,-0.00000026,-0.00280819,0.
 00599141,-0.01503391,0.00000049,-0.00000012,0.00000046,-0.00000289,-0.
 00000256,0.00000251,-0.00000018,0.00000006,-0.00000010,-0.00000016,0.0
 0000002,-0.00000063,0.00000405,0.00001617,0.00000988,-0.00068929,0.000
 09537,0.00014791,0.00001465,-0.00006955,-0.00006103,-0.00000001,0.0000
 0025,0.00000077,0.00146280,0.00031262,0.00124556,-0.00213638,-0.002670
 81,0.00081769,0.,-0.00000009,-0.00000004,0.00000018,-0.00000007,0.,0.0
 5851312,-0.09546511,0.40952749,0.00003959,-0.00005714,0.00000828,-0.00
 007138,-0.00022409,-0.00068806,-0.00002040,-0.00013831,-0.00000467,-0.
 00066912,-0.00057002,-0.00029270,-0.00001709,-0.00000189,-0.00000319,-
 0.00000790,0.00001468,-0.00000956,-0.34165637,0.00196807,0.15795470,0.
 00014755,-0.00003267,0.00020327,-0.00000515,-0.00005787,-0.00003721,0.
 00001654,-0.00001006,0.00001551,-0.00036513,0.00103020,0.00196869,-0.0
 0286589,-0.00427511,-0.00389667,-0.00009395,0.00015822,-0.00002480,0.0
 0000143,-0.00000005,0.00000364,-0.02037793,0.00671188,0.01182798,0.000
 00039,0.00000245,0.00000426,0.00001824,0.00000998,-0.00001715,-0.00003
 006,0.00000378,0.00000930,0.00000210,0.00000720,0.00000329,-0.00000134
 ,0.00003865,-0.00005599,0.00033574,-0.00001493,0.00001565,0.00048289,-
 0.00010803,-0.00019804,0.00001688,-0.00001755,-0.00001305,0.00127840,-
 0.00009987,0.00059131,0.00076137,0.00071134,-0.00025267,-0.00000088,-0
 .00000043,-0.00000015,-0.00000121,0.00000134,-0.00000034,0.00563792,0.
 00243869,-0.00552107,0.35745334,0.00001916,-0.00000745,0.00000037,0.00
 007138,-0.00013238,-0.00015094,0.00000216,-0.00003031,0.00000129,-0.00
 005678,-0.00010265,0.00001018,-0.00000199,0.00000143,0.00000105,-0.000
 00086,0.00000174,-0.00000103,0.04340760,-0.01879322,-0.03478741,0.0000
 9722,-0.00005785,0.00001714,0.00000997,0.00000554,0.00000324,0.0000034
 2,0.00000013,0.00000045,-0.00044176,0.00101014,0.00040576,-0.00126611,
 -0.00205466,-0.00189533,-0.00004699,0.00002384,-0.00001698,0.00000028,
 -0.00000032,0.00000093,-0.02572168,-0.00481619,0.01081124,-0.00000068,
 0.00000002,0.00000087,0.00000442,0.00000230,-0.00000152,0.00000054,-0.
 00000078,0.,-0.00000032,0.00000105,0.00000137,-0.00003142,0.00001245,-
 0.00000094,0.00016079,-0.00012885,-0.00004910,-0.00018660,0.00033924,-
 0.00004304,0.00000368,-0.00000386,-0.00000419,0.00010014,0.00064678,0.
 00083434,0.00064789,0.00098326,0.00015802,0.,-0.00000008,-0.00000020,-
 0.00000014,0.00000024,-0.00000017,-0.00927926,-0.00236942,0.00743252,-
 0.00749097,0.02546969,0.00002824,-0.00004160,0.00000434,-0.00004127,-0
 .00008473,-0.00027880,-0.00001710,-0.00010469,-0.00000401,-0.00044011,
 -0.00045985,-0.00016859,-0.00001239,-0.00000208,-0.00000127,-0.0000055
 7,0.00001064,-0.00000782,0.14613461,-0.01166978,-0.13910108,0.00011144
 ,-0.00007188,0.00011668,0.00000226,-0.00003378,-0.00002424,0.00001304,
 -0.00000593,0.00001099,-0.00048913,0.00051735,0.00119925,-0.00274788,-
 0.00228767,-0.00135977,-0.00006949,0.00010738,-0.00001839,0.00000119,0
 .00000012,0.00000271,-0.01739274,0.00063844,0.00870675,0.00000093,0.00
 000122,0.00000263,0.00000883,0.00000336,-0.00000759,-0.00001927,0.0000
 0182,0.00000679,0.00000117,0.00000471,0.00000211,-0.00000927,0.0000423
 5,-0.00004697,-0.00015083,-0.00011829,0.00030252,0.00022842,-0.0000638
 9,-0.00022683,0.00001280,-0.00001259,-0.00000940,-0.00004046,-0.000280
 56,-0.00010176,-0.00003054,0.00043992,0.00046811,-0.00000078,-0.000000
 44,-0.00000008,-0.00000090,0.00000104,-0.00000003,0.03651964,-0.003804
 29,-0.01814610,-0.16158758,0.01727167,0.14868062,-0.05035348,0.0375037
 4,-0.00753203,-0.00000404,-0.00004474,0.00053909,0.00706400,-0.0045544
 9,0.00298570,0.00062504,-0.00245958,0.00044880,0.00002417,-0.00009461,
 0.00001969,0.00003851,0.00006561,0.00000922,-0.00003910,-0.00000791,0.
 00000925,-0.00479644,-0.00123351,-0.00250798,-0.00007996,0.00065381,-0
 .00039140,-0.00028893,0.00001677,0.00018297,0.00064636,0.00073193,-0.0
 0102584,-0.00001709,0.00001488,0.00004374,-0.01792252,0.05641011,-0.00
 391409,0.00002288,-0.00003247,0.00003479,0.00005320,-0.00001550,-0.000
 03795,-0.00005139,0.00006451,-0.00006684,-0.00038244,0.00068453,-0.000
 05690,-0.00009766,0.00001001,-0.00000541,-0.00001854,-0.00000378,0.000
 02288,-0.00007897,0.00033370,0.00026297,-0.00000700,0.00000874,-0.0000
 0564,-0.00002887,-0.00001102,-0.00000385,-0.00002768,0.00002376,0.0000
 1629,-0.00000520,0.00000009,-0.00000124,-0.00000274,0.00000038,0.00000
 092,-0.00000266,-0.00000091,0.00000165,0.00000362,-0.00000044,-0.00000
 322,0.00000328,-0.00000156,-0.00000025,-0.00000857,-0.00000305,-0.0000
 0726,0.06573222,0.08249069,-0.47495906,0.00937098,0.00003395,0.0000231
 2,-0.00013274,-0.00761486,-0.00171239,-0.00200874,0.00062176,0.0008913
 1,0.00013122,-0.00001854,0.00007955,-0.00001160,-0.00002623,-0.0000367
 4,-0.00000292,0.00001279,0.00000437,-0.00000294,-0.00027471,0.00125779
 ,-0.00071935,-0.00000135,-0.00014780,0.00027923,0.00021721,-0.00002975
 ,0.00003086,-0.00018127,0.00004415,0.00018297,0.00002669,-0.00002617,-
 0.00001196,0.01257448,-0.00873338,0.00301118,-0.00002284,0.00003315,-0
 .00006332,-0.00001259,0.00000194,0.00001320,0.00003750,-0.00000357,0.0
 0002897,0.00012477,-0.00009822,0.00019028,0.00010735,0.00002229,-0.000
 00963,-0.00001370,-0.00001575,0.00001357,-0.00002447,-0.00004774,0.000
 00183,0.00000331,0.00000046,0.00000273,-0.00000004,0.00000104,0.000001
 98,0.00000039,-0.00000692,-0.00000113,-0.00000100,-0.00000037,-0.00000
 175,-0.00000084,0.00000103,-0.00000017,0.00000153,0.00000061,0.0000012
 8,-0.00000188,0.00000264,-0.00000284,-0.00000161,0.00000026,-0.0000001
 7,0.00000253,0.00000017,0.00000203,-0.08805900,0.48345398,-0.00644093,
 -0.00179840,-0.01841029,-0.00012785,-0.00005758,0.00022333,0.00284664,
 -0.00106647,-0.00431352,0.00029475,-0.00059925,0.00035183,0.00000832,-
 0.00006599,-0.00000945,0.00001618,0.00010691,-0.00002280,-0.00001437,-
 0.00000470,-0.00000107,-0.00339173,-0.00048369,0.00581129,0.00013918,0
 .00116387,-0.00046140,-0.00031549,-0.00007729,0.00009621,0.00029164,0.
 00006909,-0.00025777,-0.00002474,0.00000302,0.00000970,-0.00471154,0.0
 1376399,0.00164238,0.00002166,0.00001458,0.00006042,0.00001682,0.00000
 374,-0.00001557,-0.00006765,0.00005730,-0.00004854,0.00055918,-0.00107
 688,-0.00025017,0.00002324,-0.00006176,-0.00003467,0.00001287,0.000006
 93,0.00000101,-0.00008436,0.00039751,0.00014981,-0.00000275,0.00000043
 ,-0.00000046,-0.00000503,-0.00000036,-0.00000030,-0.00001162,0.0000010
 4,0.00000890,-0.00000586,-0.00000312,0.00000454,0.00000235,0.00000136,
 0.00000025,-0.00000734,-0.00000332,0.00000252,-0.00000175,0.00000168,-
 0.00000039,0.00000126,0.,-0.00000059,-0.00000297,0.00000040,-0.0000007
 9,0.01098191,-0.01029305,0.01546561\\-0.00000281,0.00000217,0.00000213
 ,-0.00000056,-0.00000154,-0.00000254,-0.00000149,-0.00000243,0.0000053
 7,0.00000349,-0.00000079,0.00000087,0.00000639,0.00000038,-0.00000424,
 -0.00000025,0.00000216,-0.00000051,0.00000062,-0.00000057,-0.00000185,
 -0.00000652,0.00000248,0.00000133,0.00000740,-0.00000036,0.00000020,-0
 .00000284,0.00000275,0.00000244,-0.00000180,-0.00000086,0.00000340,0.0
 0000324,-0.00000093,-0.00000528,0.00000396,-0.00000032,0.00000267,-0.0
 0000014,-0.00000397,0.00000550,-0.00000285,0.00000130,-0.00000240,-0.0
 0000336,-0.00000141,0.00000045,-0.00000036,-0.00000145,0.00000240,-0.0
 0000034,-0.00000065,0.00000336,-0.00000098,0.00000159,0.00000216,0.000
 00057,0.00000354,0.00000162,0.00000041,0.00000129,-0.00000229,-0.00000
 153,0.00000008,-0.00000365,-0.00000059,-0.00000097,0.00000224,-0.00000
 081,-0.00000056,-0.00000169,0.00000073,-0.00000227,-0.00000387,-0.0000
 0119,-0.00000052,0.00000332,0.00000039,-0.00000003,-0.00000216,0.00000
 193,0.00000063,-0.00000580,-0.00000173,0.00000158,-0.00000657,0.000001
 01,-0.00000033,0.00000340\\\@
 The archive entry for this job was punched.


 Statistics are no substitute for judgment.
                            -- Henry Clay
 Job cpu time:       0 days  6 hours 28 minutes 26.9 seconds.
 Elapsed time:       0 days  0 hours  3 minutes 38.4 seconds.
 File lengths (MBytes):  RWF=    604 Int=      0 D2E=      0 Chk=     28 Scr=      1
 Normal termination of Gaussian 16 at Mon Mar  2 06:21:13 2026.
