SLURM_NODELIST orfoz218
NUMBER OF TASKS 1
NUMBER OF CORES=112
 Entering Gaussian System, Link 0=/arf/sw/apps/gaussian/avx/g16/g16
 Initial command:
 /arf/sw/apps/gaussian/avx/g16/l1.exe "/tmp/5366525/Gau-3080459.inp" -scrdir="/tmp/5366525/"
 Entering Link 1 = /arf/sw/apps/gaussian/avx/g16/l1.exe PID=   3080460.
  
 Copyright (c) 1988-2019, Gaussian, Inc.  All Rights Reserved.
  
 This is part of the Gaussian(R) 16 program.  It is based on
 the Gaussian(R) 09 system (copyright 2009, Gaussian, Inc.),
 the Gaussian(R) 03 system (copyright 2003, Gaussian, Inc.),
 the Gaussian(R) 98 system (copyright 1998, Gaussian, Inc.),
 the Gaussian(R) 94 system (copyright 1995, Gaussian, Inc.),
 the Gaussian 92(TM) system (copyright 1992, Gaussian, Inc.),
 the Gaussian 90(TM) system (copyright 1990, Gaussian, Inc.),
 the Gaussian 88(TM) system (copyright 1988, Gaussian, Inc.),
 the Gaussian 86(TM) system (copyright 1986, Carnegie Mellon
 University), and the Gaussian 82(TM) system (copyright 1983,
 Carnegie Mellon University). Gaussian is a federally registered
 trademark of Gaussian, Inc.
  
 This software contains proprietary and confidential information,
 including trade secrets, belonging to Gaussian, Inc.
  
 This software is provided under written license and may be
 used, copied, transmitted, or stored only in accord with that
 written license.
  
 The following legend is applicable only to US Government
 contracts under FAR:
  
                    RESTRICTED RIGHTS LEGEND
  
 Use, reproduction and disclosure by the US Government is
 subject to restrictions as set forth in subparagraphs (a)
 and (c) of the Commercial Computer Software - Restricted
 Rights clause in FAR 52.227-19.
  
 Gaussian, Inc.
 340 Quinnipiac St., Bldg. 40, Wallingford CT 06492
  
  
 ---------------------------------------------------------------
 Warning -- This program may not be used in any manner that
 competes with the business of Gaussian, Inc. or will provide
 assistance to any competitor of Gaussian, Inc.  The licensee
 of this program is prohibited from giving any competitor of
 Gaussian, Inc. access to this program.  By using this program,
 the user acknowledges that Gaussian, Inc. is engaged in the
 business of creating and licensing software in the field of
 computational chemistry and represents and warrants to the
 licensee that it is not a competitor of Gaussian, Inc. and that
 it will not use this program in any manner prohibited above.
 ---------------------------------------------------------------
  

 Cite this work as:
 Gaussian 16, Revision C.01,
 M. J. Frisch, G. W. Trucks, H. B. Schlegel, G. E. Scuseria, 
 M. A. Robb, J. R. Cheeseman, G. Scalmani, V. Barone, 
 G. A. Petersson, H. Nakatsuji, X. Li, M. Caricato, A. V. Marenich, 
 J. Bloino, B. G. Janesko, R. Gomperts, B. Mennucci, H. P. Hratchian, 
 J. V. Ortiz, A. F. Izmaylov, J. L. Sonnenberg, D. Williams-Young, 
 F. Ding, F. Lipparini, F. Egidi, J. Goings, B. Peng, A. Petrone, 
 T. Henderson, D. Ranasinghe, V. G. Zakrzewski, J. Gao, N. Rega, 
 G. Zheng, W. Liang, M. Hada, M. Ehara, K. Toyota, R. Fukuda, 
 J. Hasegawa, M. Ishida, T. Nakajima, Y. Honda, O. Kitao, H. Nakai, 
 T. Vreven, K. Throssell, J. A. Montgomery, Jr., J. E. Peralta, 
 F. Ogliaro, M. J. Bearpark, J. J. Heyd, E. N. Brothers, K. N. Kudin, 
 V. N. Staroverov, T. A. Keith, R. Kobayashi, J. Normand, 
 K. Raghavachari, A. P. Rendell, J. C. Burant, S. S. Iyengar, 
 J. Tomasi, M. Cossi, J. M. Millam, M. Klene, C. Adamo, R. Cammi, 
 J. W. Ochterski, R. L. Martin, K. Morokuma, O. Farkas, 
 J. B. Foresman, and D. J. Fox, Gaussian, Inc., Wallingford CT, 2019.
 
 ******************************************
 Gaussian 16:  ES64L-G16RevC.01  3-Jul-2019
                 7-Mar-2026 
 ******************************************
 %nprocshared=112
 Will use up to  112 processors via shared memory.
 %mem=10GB
 %chk=Lapatinib.chk
 ----------------------------------------------------------------------
 # opt freq b3lyp/6-311++g(d,p) scrf=(pcm,solvent=water) geom=connectiv
 ity
 ----------------------------------------------------------------------
 1/18=20,19=15,26=3,38=1,57=2/1,3;
 2/9=110,12=2,17=6,18=5,40=1/2;
 3/5=4,6=6,7=1111,11=2,25=1,30=1,70=2201,71=1,72=1,74=-5/1,2,3;
 4//1;
 5/5=2,38=5,53=1/2;
 6/7=2,8=2,9=2,10=2,28=1/1;
 7//1,2,3,16;
 1/18=20,19=15,26=3/3(2);
 2/9=110/2;
 99//99;
 2/9=110/2;
 3/5=4,6=6,7=1111,11=2,25=1,30=1,70=2205,71=1,72=1,74=-5/1,2,3;
 4/5=5,16=3,69=1/1;
 5/5=2,38=5,53=1/2;
 7//1,2,3,16;
 1/18=20,19=15,26=3/3(-5);
 2/9=110/2;
 6/7=2,8=2,9=2,10=2,19=2,28=1/1;
 99/9=1/99;
 ---------
 Lapatinib
 ---------
 Symbolic Z-matrix:
 Charge =  0 Multiplicity = 1
 Cl                    3.3944    1.2279    1.6971 
 S                    -0.2915    3.6518   -0.1354 
 F                     8.8067    1.9796   -1.2183 
 O                    -5.0759    1.725     0.4829 
 O                    -0.1192    3.4084    1.3721 
 O                    -0.5357    2.2004   -0.5766 
 O                     4.688    -0.8647    0.0497 
 N                    -4.2527    4.6507    0.1972 
 N                    -0.9167   -1.2546    0.3586 
 N                    -3.4638   -4.3408   -0.925 
 N                    -1.3333   -3.5274   -0.3674 
 C                    -2.9777    3.9577    0.4506 
 C                    -1.854     4.5618   -0.3933 
 C                    -5.3477    4.1314    1.0354 
 C                    -5.8327    2.791     0.5578 
 C                    -5.2051   -0.6239   -0.2027 
 C                    -5.7857    0.718     0.0301 
 C                    -3.2088   -2.0514   -0.2431 
 C                    -3.8248   -0.8035   -0.0093 
 C                    -7.1134    2.4775    0.1444 
 C                    -7.0864    1.1391   -0.1935 
 C                    -4.0191   -3.1286   -0.6754 
 C                    -5.9858   -1.7084   -0.6289 
 C                    -1.8111   -2.2836   -0.0943 
 C                     1.334     4.1222   -0.7886 
 C                    -5.3949   -2.9521   -0.8596 
 C                     0.516    -1.2363    0.2668 
 C                    -2.1338   -4.5429   -0.7743 
 C                     1.2047   -0.2018    0.9273 
 C                     1.2719   -2.1648   -0.4813 
 C                     3.3395   -1.0162    0.1114 
 C                     2.5954   -0.0926    0.8552 
 C                     2.6643   -2.0554   -0.5553 
 C                     5.5651   -1.6548   -0.666 
 C                     6.9569   -1.1098   -0.5165 
 C                     7.2444    0.1987   -0.9411 
 C                     7.9814   -1.8929    0.0415 
 C                     8.5368    0.716    -0.8074 
 C                     9.2728   -1.372     0.1728 
 C                     9.5504   -0.0693   -0.2508 
 H                    -3.0564    2.8914    0.168 
 H                    -2.707     4.0307    1.5277 
 H                    -1.7044    5.6256   -0.1119 
 H                    -2.125     4.4963   -1.4685 
 H                    -5.0256    4.0574    2.0976 
 H                    -6.1995    4.8454    0.994 
 H                    -4.1197    5.658     0.4515 
 H                    -3.256     0.0551    0.3029 
 H                    -7.9656    3.1423    0.0936 
 H                    -7.9175    0.5572   -0.5674 
 H                    -7.05     -1.6005   -0.7886 
 H                     2.0746    3.3369   -0.5302 
 H                     1.2789    4.2107   -1.893 
 H                     1.6534    5.0843   -0.3382 
 H                    -6.0097   -3.7796   -1.1922 
 H                    -1.325    -0.4266    0.8065 
 H                     0.6546    0.5328    1.5027 
 H                     0.8249   -2.9677   -1.0387 
 H                    -1.709    -5.5159   -0.9788 
 H                     3.206    -2.7821   -1.1459 
 H                     5.2942   -1.6389   -1.7444 
 H                     5.5075   -2.7023   -0.2965 
 H                     6.4664    0.8156   -1.3743 
 H                     7.7833   -2.904     0.3744 
 H                     10.059   -1.9787    0.603 
 H                     10.5509   0.3306   -0.1476 
 

 GradGradGradGradGradGradGradGradGradGradGradGradGradGradGradGradGradGrad
 Berny optimization.
 Initialization pass.
                           ----------------------------
                           !    Initial Parameters    !
                           ! (Angstroms and Degrees)  !
 --------------------------                            --------------------------
 ! Name  Definition              Value          Derivative Info.                !
 --------------------------------------------------------------------------------
 ! R1    R(1,32)                 1.7581         estimate D2E/DX2                !
 ! R2    R(2,5)                  1.5367         estimate D2E/DX2                !
 ! R3    R(2,6)                  1.5365         estimate D2E/DX2                !
 ! R4    R(2,13)                 1.8265         estimate D2E/DX2                !
 ! R5    R(2,25)                 1.8139         estimate D2E/DX2                !
 ! R6    R(3,38)                 1.3559         estimate D2E/DX2                !
 ! R7    R(4,15)                 1.3095         estimate D2E/DX2                !
 ! R8    R(4,17)                 1.3126         estimate D2E/DX2                !
 ! R9    R(7,31)                 1.3584         estimate D2E/DX2                !
 ! R10   R(7,34)                 1.3805         estimate D2E/DX2                !
 ! R11   R(8,12)                 1.4731         estimate D2E/DX2                !
 ! R12   R(8,14)                 1.4735         estimate D2E/DX2                !
 ! R13   R(8,47)                 1.0474         estimate D2E/DX2                !
 ! R14   R(9,24)                 1.4366         estimate D2E/DX2                !
 ! R15   R(9,27)                 1.4358         estimate D2E/DX2                !
 ! R16   R(9,56)                 1.0261         estimate D2E/DX2                !
 ! R17   R(10,22)                1.3565         estimate D2E/DX2                !
 ! R18   R(10,28)                1.3537         estimate D2E/DX2                !
 ! R19   R(11,24)                1.3601         estimate D2E/DX2                !
 ! R20   R(11,28)                1.3556         estimate D2E/DX2                !
 ! R21   R(12,13)                1.5296         estimate D2E/DX2                !
 ! R22   R(12,41)                1.1059         estimate D2E/DX2                !
 ! R23   R(12,42)                1.113          estimate D2E/DX2                !
 ! R24   R(13,43)                1.1105         estimate D2E/DX2                !
 ! R25   R(13,44)                1.1108         estimate D2E/DX2                !
 ! R26   R(14,15)                1.5033         estimate D2E/DX2                !
 ! R27   R(14,45)                1.1124         estimate D2E/DX2                !
 ! R28   R(14,46)                1.1122         estimate D2E/DX2                !
 ! R29   R(15,20)                1.3818         estimate D2E/DX2                !
 ! R30   R(16,17)                1.4805         estimate D2E/DX2                !
 ! R31   R(16,19)                1.4053         estimate D2E/DX2                !
 ! R32   R(16,23)                1.4026         estimate D2E/DX2                !
 ! R33   R(17,21)                1.3853         estimate D2E/DX2                !
 ! R34   R(18,19)                1.4112         estimate D2E/DX2                !
 ! R35   R(18,22)                1.4156         estimate D2E/DX2                !
 ! R36   R(18,24)                1.4246         estimate D2E/DX2                !
 ! R37   R(19,48)                1.0762         estimate D2E/DX2                !
 ! R38   R(20,21)                1.3807         estimate D2E/DX2                !
 ! R39   R(20,49)                1.082          estimate D2E/DX2                !
 ! R40   R(21,50)                1.0813         estimate D2E/DX2                !
 ! R41   R(22,26)                1.3993         estimate D2E/DX2                !
 ! R42   R(23,26)                1.3961         estimate D2E/DX2                !
 ! R43   R(23,51)                1.0815         estimate D2E/DX2                !
 ! R44   R(25,52)                1.1099         estimate D2E/DX2                !
 ! R45   R(25,53)                1.1093         estimate D2E/DX2                !
 ! R46   R(25,54)                1.1093         estimate D2E/DX2                !
 ! R47   R(26,55)                1.0832         estimate D2E/DX2                !
 ! R48   R(27,29)                1.4074         estimate D2E/DX2                !
 ! R49   R(27,30)                1.4118         estimate D2E/DX2                !
 ! R50   R(28,59)                1.0812         estimate D2E/DX2                !
 ! R51   R(29,32)                1.3968         estimate D2E/DX2                !
 ! R52   R(29,57)                1.0832         estimate D2E/DX2                !
 ! R53   R(30,33)                1.3987         estimate D2E/DX2                !
 ! R54   R(30,58)                1.0748         estimate D2E/DX2                !
 ! R55   R(31,32)                1.4            estimate D2E/DX2                !
 ! R56   R(31,33)                1.4072         estimate D2E/DX2                !
 ! R57   R(33,60)                1.0818         estimate D2E/DX2                !
 ! R58   R(34,35)                1.5022         estimate D2E/DX2                !
 ! R59   R(34,61)                1.112          estimate D2E/DX2                !
 ! R60   R(34,62)                1.1123         estimate D2E/DX2                !
 ! R61   R(35,36)                1.4054         estimate D2E/DX2                !
 ! R62   R(35,37)                1.4051         estimate D2E/DX2                !
 ! R63   R(36,38)                1.3985         estimate D2E/DX2                !
 ! R64   R(36,63)                1.0833         estimate D2E/DX2                !
 ! R65   R(37,39)                1.3987         estimate D2E/DX2                !
 ! R66   R(37,64)                1.0828         estimate D2E/DX2                !
 ! R67   R(38,40)                1.3978         estimate D2E/DX2                !
 ! R68   R(39,40)                1.3977         estimate D2E/DX2                !
 ! R69   R(39,65)                1.0823         estimate D2E/DX2                !
 ! R70   R(40,66)                1.0824         estimate D2E/DX2                !
 ! A1    A(5,2,6)               98.6205         estimate D2E/DX2                !
 ! A2    A(5,2,13)             108.2611         estimate D2E/DX2                !
 ! A3    A(5,2,25)             107.0893         estimate D2E/DX2                !
 ! A4    A(6,2,13)             107.105          estimate D2E/DX2                !
 ! A5    A(6,2,25)             106.4984         estimate D2E/DX2                !
 ! A6    A(13,2,25)            125.9139         estimate D2E/DX2                !
 ! A7    A(15,4,17)            109.3746         estimate D2E/DX2                !
 ! A8    A(31,7,34)            126.1883         estimate D2E/DX2                !
 ! A9    A(12,8,14)            112.3049         estimate D2E/DX2                !
 ! A10   A(12,8,47)            107.5031         estimate D2E/DX2                !
 ! A11   A(14,8,47)            107.1686         estimate D2E/DX2                !
 ! A12   A(24,9,27)            127.6051         estimate D2E/DX2                !
 ! A13   A(24,9,56)            117.895          estimate D2E/DX2                !
 ! A14   A(27,9,56)            114.4996         estimate D2E/DX2                !
 ! A15   A(22,10,28)           121.0063         estimate D2E/DX2                !
 ! A16   A(24,11,28)           122.5397         estimate D2E/DX2                !
 ! A17   A(8,12,13)            110.8014         estimate D2E/DX2                !
 ! A18   A(8,12,41)            110.3669         estimate D2E/DX2                !
 ! A19   A(8,12,42)            110.2502         estimate D2E/DX2                !
 ! A20   A(13,12,41)           106.9826         estimate D2E/DX2                !
 ! A21   A(13,12,42)           109.2282         estimate D2E/DX2                !
 ! A22   A(41,12,42)           109.1378         estimate D2E/DX2                !
 ! A23   A(2,13,12)            110.7186         estimate D2E/DX2                !
 ! A24   A(2,13,43)            109.0411         estimate D2E/DX2                !
 ! A25   A(2,13,44)            108.4222         estimate D2E/DX2                !
 ! A26   A(12,13,43)           109.7235         estimate D2E/DX2                !
 ! A27   A(12,13,44)           109.3609         estimate D2E/DX2                !
 ! A28   A(43,13,44)           109.5506         estimate D2E/DX2                !
 ! A29   A(8,14,15)            111.9162         estimate D2E/DX2                !
 ! A30   A(8,14,45)            110.575          estimate D2E/DX2                !
 ! A31   A(8,14,46)            108.7658         estimate D2E/DX2                !
 ! A32   A(15,14,45)           109.7217         estimate D2E/DX2                !
 ! A33   A(15,14,46)           108.2688         estimate D2E/DX2                !
 ! A34   A(45,14,46)           107.4572         estimate D2E/DX2                !
 ! A35   A(4,15,14)            123.8871         estimate D2E/DX2                !
 ! A36   A(4,15,20)            109.5027         estimate D2E/DX2                !
 ! A37   A(14,15,20)           126.6088         estimate D2E/DX2                !
 ! A38   A(17,16,19)           118.6444         estimate D2E/DX2                !
 ! A39   A(17,16,23)           122.0263         estimate D2E/DX2                !
 ! A40   A(19,16,23)           119.3213         estimate D2E/DX2                !
 ! A41   A(4,17,16)            122.5154         estimate D2E/DX2                !
 ! A42   A(4,17,21)            109.2812         estimate D2E/DX2                !
 ! A43   A(16,17,21)           128.194          estimate D2E/DX2                !
 ! A44   A(19,18,22)           118.2717         estimate D2E/DX2                !
 ! A45   A(19,18,24)           123.7169         estimate D2E/DX2                !
 ! A46   A(22,18,24)           117.9994         estimate D2E/DX2                !
 ! A47   A(16,19,18)           121.263          estimate D2E/DX2                !
 ! A48   A(16,19,48)           117.1992         estimate D2E/DX2                !
 ! A49   A(18,19,48)           121.5243         estimate D2E/DX2                !
 ! A50   A(15,20,21)           105.9637         estimate D2E/DX2                !
 ! A51   A(15,20,49)           127.2016         estimate D2E/DX2                !
 ! A52   A(21,20,49)           126.8347         estimate D2E/DX2                !
 ! A53   A(17,21,20)           105.8742         estimate D2E/DX2                !
 ! A54   A(17,21,50)           127.8725         estimate D2E/DX2                !
 ! A55   A(20,21,50)           126.2487         estimate D2E/DX2                !
 ! A56   A(10,22,18)           120.1247         estimate D2E/DX2                !
 ! A57   A(10,22,26)           119.4063         estimate D2E/DX2                !
 ! A58   A(18,22,26)           120.467          estimate D2E/DX2                !
 ! A59   A(16,23,26)           120.2266         estimate D2E/DX2                !
 ! A60   A(16,23,51)           121.0261         estimate D2E/DX2                !
 ! A61   A(26,23,51)           118.7469         estimate D2E/DX2                !
 ! A62   A(9,24,11)            119.9736         estimate D2E/DX2                !
 ! A63   A(9,24,18)            121.8014         estimate D2E/DX2                !
 ! A64   A(11,24,18)           118.2114         estimate D2E/DX2                !
 ! A65   A(2,25,52)            109.3069         estimate D2E/DX2                !
 ! A66   A(2,25,53)            109.5539         estimate D2E/DX2                !
 ! A67   A(2,25,54)            109.6782         estimate D2E/DX2                !
 ! A68   A(52,25,53)           108.7454         estimate D2E/DX2                !
 ! A69   A(52,25,54)           109.0864         estimate D2E/DX2                !
 ! A70   A(53,25,54)           110.4468         estimate D2E/DX2                !
 ! A71   A(22,26,23)           120.4484         estimate D2E/DX2                !
 ! A72   A(22,26,55)           120.1401         estimate D2E/DX2                !
 ! A73   A(23,26,55)           119.4091         estimate D2E/DX2                !
 ! A74   A(9,27,29)            117.8828         estimate D2E/DX2                !
 ! A75   A(9,27,30)            124.0405         estimate D2E/DX2                !
 ! A76   A(29,27,30)           118.0409         estimate D2E/DX2                !
 ! A77   A(10,28,11)           120.1168         estimate D2E/DX2                !
 ! A78   A(10,28,59)           119.955          estimate D2E/DX2                !
 ! A79   A(11,28,59)           119.9282         estimate D2E/DX2                !
 ! A80   A(27,29,32)           121.3612         estimate D2E/DX2                !
 ! A81   A(27,29,57)           119.952          estimate D2E/DX2                !
 ! A82   A(32,29,57)           118.6863         estimate D2E/DX2                !
 ! A83   A(27,30,33)           120.6386         estimate D2E/DX2                !
 ! A84   A(27,30,58)           122.9181         estimate D2E/DX2                !
 ! A85   A(33,30,58)           116.4255         estimate D2E/DX2                !
 ! A86   A(7,31,32)            118.5673         estimate D2E/DX2                !
 ! A87   A(7,31,33)            122.4902         estimate D2E/DX2                !
 ! A88   A(32,31,33)           118.9385         estimate D2E/DX2                !
 ! A89   A(1,32,29)            119.1088         estimate D2E/DX2                !
 ! A90   A(1,32,31)            120.556          estimate D2E/DX2                !
 ! A91   A(29,32,31)           120.3325         estimate D2E/DX2                !
 ! A92   A(30,33,31)           120.6876         estimate D2E/DX2                !
 ! A93   A(30,33,60)           118.3485         estimate D2E/DX2                !
 ! A94   A(31,33,60)           120.9604         estimate D2E/DX2                !
 ! A95   A(7,34,35)            109.234          estimate D2E/DX2                !
 ! A96   A(7,34,61)            109.8647         estimate D2E/DX2                !
 ! A97   A(7,34,62)            109.5043         estimate D2E/DX2                !
 ! A98   A(35,34,61)           108.484          estimate D2E/DX2                !
 ! A99   A(35,34,62)           110.8921         estimate D2E/DX2                !
 ! A100  A(61,34,62)           108.8454         estimate D2E/DX2                !
 ! A101  A(34,35,36)           119.8196         estimate D2E/DX2                !
 ! A102  A(34,35,37)           120.8568         estimate D2E/DX2                !
 ! A103  A(36,35,37)           119.3234         estimate D2E/DX2                !
 ! A104  A(35,36,38)           120.3025         estimate D2E/DX2                !
 ! A105  A(35,36,63)           120.2722         estimate D2E/DX2                !
 ! A106  A(38,36,63)           119.4252         estimate D2E/DX2                !
 ! A107  A(35,37,39)           120.1945         estimate D2E/DX2                !
 ! A108  A(35,37,64)           120.607          estimate D2E/DX2                !
 ! A109  A(39,37,64)           119.1984         estimate D2E/DX2                !
 ! A110  A(3,38,36)            119.9812         estimate D2E/DX2                !
 ! A111  A(3,38,40)            119.9936         estimate D2E/DX2                !
 ! A112  A(36,38,40)           120.0252         estimate D2E/DX2                !
 ! A113  A(37,39,40)           120.1353         estimate D2E/DX2                !
 ! A114  A(37,39,65)           119.9517         estimate D2E/DX2                !
 ! A115  A(40,39,65)           119.9129         estimate D2E/DX2                !
 ! A116  A(38,40,39)           120.0189         estimate D2E/DX2                !
 ! A117  A(38,40,66)           120.0444         estimate D2E/DX2                !
 ! A118  A(39,40,66)           119.9367         estimate D2E/DX2                !
 ! D1    D(5,2,13,12)          -44.6172         estimate D2E/DX2                !
 ! D2    D(5,2,13,43)           76.1961         estimate D2E/DX2                !
 ! D3    D(5,2,13,44)         -164.5888         estimate D2E/DX2                !
 ! D4    D(6,2,13,12)           60.8499         estimate D2E/DX2                !
 ! D5    D(6,2,13,43)         -178.3368         estimate D2E/DX2                !
 ! D6    D(6,2,13,44)          -59.1217         estimate D2E/DX2                !
 ! D7    D(25,2,13,12)        -173.0106         estimate D2E/DX2                !
 ! D8    D(25,2,13,43)         -52.1973         estimate D2E/DX2                !
 ! D9    D(25,2,13,44)          67.0178         estimate D2E/DX2                !
 ! D10   D(5,2,25,52)           55.3869         estimate D2E/DX2                !
 ! D11   D(5,2,25,53)          174.4507         estimate D2E/DX2                !
 ! D12   D(5,2,25,54)          -64.1679         estimate D2E/DX2                !
 ! D13   D(6,2,25,52)          -49.3633         estimate D2E/DX2                !
 ! D14   D(6,2,25,53)           69.7006         estimate D2E/DX2                !
 ! D15   D(6,2,25,54)         -168.918          estimate D2E/DX2                !
 ! D16   D(13,2,25,52)        -175.7524         estimate D2E/DX2                !
 ! D17   D(13,2,25,53)         -56.6885         estimate D2E/DX2                !
 ! D18   D(13,2,25,54)          64.6929         estimate D2E/DX2                !
 ! D19   D(17,4,15,14)        -179.9219         estimate D2E/DX2                !
 ! D20   D(17,4,15,20)           0.4836         estimate D2E/DX2                !
 ! D21   D(15,4,17,16)         178.3345         estimate D2E/DX2                !
 ! D22   D(15,4,17,21)          -0.6335         estimate D2E/DX2                !
 ! D23   D(34,7,31,32)        -177.9354         estimate D2E/DX2                !
 ! D24   D(34,7,31,33)           1.3289         estimate D2E/DX2                !
 ! D25   D(31,7,34,35)         177.3676         estimate D2E/DX2                !
 ! D26   D(31,7,34,61)          58.4805         estimate D2E/DX2                !
 ! D27   D(31,7,34,62)         -61.0135         estimate D2E/DX2                !
 ! D28   D(14,8,12,13)        -177.626          estimate D2E/DX2                !
 ! D29   D(14,8,12,41)          64.0593         estimate D2E/DX2                !
 ! D30   D(14,8,12,42)         -56.5847         estimate D2E/DX2                !
 ! D31   D(47,8,12,13)         -59.986          estimate D2E/DX2                !
 ! D32   D(47,8,12,41)        -178.3006         estimate D2E/DX2                !
 ! D33   D(47,8,12,42)          61.0554         estimate D2E/DX2                !
 ! D34   D(12,8,14,15)         -74.6485         estimate D2E/DX2                !
 ! D35   D(12,8,14,45)          48.0041         estimate D2E/DX2                !
 ! D36   D(12,8,14,46)         165.7766         estimate D2E/DX2                !
 ! D37   D(47,8,14,15)         167.5129         estimate D2E/DX2                !
 ! D38   D(47,8,14,45)         -69.8345         estimate D2E/DX2                !
 ! D39   D(47,8,14,46)          47.938          estimate D2E/DX2                !
 ! D40   D(27,9,24,11)          16.9137         estimate D2E/DX2                !
 ! D41   D(27,9,24,18)        -164.4538         estimate D2E/DX2                !
 ! D42   D(56,9,24,11)        -162.8627         estimate D2E/DX2                !
 ! D43   D(56,9,24,18)          15.7698         estimate D2E/DX2                !
 ! D44   D(24,9,27,29)        -172.1541         estimate D2E/DX2                !
 ! D45   D(24,9,27,30)          10.07           estimate D2E/DX2                !
 ! D46   D(56,9,27,29)           7.6287         estimate D2E/DX2                !
 ! D47   D(56,9,27,30)        -170.1472         estimate D2E/DX2                !
 ! D48   D(28,10,22,18)         -0.3512         estimate D2E/DX2                !
 ! D49   D(28,10,22,26)        179.1359         estimate D2E/DX2                !
 ! D50   D(22,10,28,11)          0.0509         estimate D2E/DX2                !
 ! D51   D(22,10,28,59)       -179.9475         estimate D2E/DX2                !
 ! D52   D(28,11,24,9)         178.7836         estimate D2E/DX2                !
 ! D53   D(28,11,24,18)          0.1025         estimate D2E/DX2                !
 ! D54   D(24,11,28,10)          0.0749         estimate D2E/DX2                !
 ! D55   D(24,11,28,59)       -179.9267         estimate D2E/DX2                !
 ! D56   D(8,12,13,2)         -177.3851         estimate D2E/DX2                !
 ! D57   D(8,12,13,43)          62.2073         estimate D2E/DX2                !
 ! D58   D(8,12,13,44)         -57.9769         estimate D2E/DX2                !
 ! D59   D(41,12,13,2)         -57.0344         estimate D2E/DX2                !
 ! D60   D(41,12,13,43)       -177.442          estimate D2E/DX2                !
 ! D61   D(41,12,13,44)         62.3737         estimate D2E/DX2                !
 ! D62   D(42,12,13,2)          60.9714         estimate D2E/DX2                !
 ! D63   D(42,12,13,43)        -59.4362         estimate D2E/DX2                !
 ! D64   D(42,12,13,44)       -179.6204         estimate D2E/DX2                !
 ! D65   D(8,14,15,4)           60.1581         estimate D2E/DX2                !
 ! D66   D(8,14,15,20)        -120.3181         estimate D2E/DX2                !
 ! D67   D(45,14,15,4)         -62.9786         estimate D2E/DX2                !
 ! D68   D(45,14,15,20)        116.5452         estimate D2E/DX2                !
 ! D69   D(46,14,15,4)        -179.9754         estimate D2E/DX2                !
 ! D70   D(46,14,15,20)         -0.4516         estimate D2E/DX2                !
 ! D71   D(4,15,20,21)          -0.1423         estimate D2E/DX2                !
 ! D72   D(4,15,20,49)         179.9075         estimate D2E/DX2                !
 ! D73   D(14,15,20,21)       -179.7229         estimate D2E/DX2                !
 ! D74   D(14,15,20,49)          0.3269         estimate D2E/DX2                !
 ! D75   D(19,16,17,4)          -3.9985         estimate D2E/DX2                !
 ! D76   D(19,16,17,21)        174.762          estimate D2E/DX2                !
 ! D77   D(23,16,17,4)         177.0429         estimate D2E/DX2                !
 ! D78   D(23,16,17,21)         -4.1966         estimate D2E/DX2                !
 ! D79   D(17,16,19,18)       -178.6166         estimate D2E/DX2                !
 ! D80   D(17,16,19,48)          0.0657         estimate D2E/DX2                !
 ! D81   D(23,16,19,18)          0.3708         estimate D2E/DX2                !
 ! D82   D(23,16,19,48)        179.0531         estimate D2E/DX2                !
 ! D83   D(17,16,23,26)        178.8691         estimate D2E/DX2                !
 ! D84   D(17,16,23,51)         -0.9054         estimate D2E/DX2                !
 ! D85   D(19,16,23,26)         -0.0827         estimate D2E/DX2                !
 ! D86   D(19,16,23,51)       -179.8572         estimate D2E/DX2                !
 ! D87   D(4,17,21,20)           0.5287         estimate D2E/DX2                !
 ! D88   D(4,17,21,50)         179.7837         estimate D2E/DX2                !
 ! D89   D(16,17,21,20)       -178.364          estimate D2E/DX2                !
 ! D90   D(16,17,21,50)          0.8911         estimate D2E/DX2                !
 ! D91   D(22,18,19,16)         -0.2371         estimate D2E/DX2                !
 ! D92   D(22,18,19,48)       -178.8621         estimate D2E/DX2                !
 ! D93   D(24,18,19,16)        178.4717         estimate D2E/DX2                !
 ! D94   D(24,18,19,48)         -0.1534         estimate D2E/DX2                !
 ! D95   D(19,18,22,10)        179.2985         estimate D2E/DX2                !
 ! D96   D(19,18,22,26)         -0.1831         estimate D2E/DX2                !
 ! D97   D(24,18,22,10)          0.5149         estimate D2E/DX2                !
 ! D98   D(24,18,22,26)       -178.9667         estimate D2E/DX2                !
 ! D99   D(19,18,24,9)           2.2442         estimate D2E/DX2                !
 ! D100  D(19,18,24,11)       -179.1001         estimate D2E/DX2                !
 ! D101  D(22,18,24,9)        -179.0438         estimate D2E/DX2                !
 ! D102  D(22,18,24,11)         -0.3881         estimate D2E/DX2                !
 ! D103  D(15,20,21,17)         -0.2295         estimate D2E/DX2                !
 ! D104  D(15,20,21,50)       -179.5003         estimate D2E/DX2                !
 ! D105  D(49,20,21,17)        179.7209         estimate D2E/DX2                !
 ! D106  D(49,20,21,50)          0.4501         estimate D2E/DX2                !
 ! D107  D(10,22,26,23)       -179.0156         estimate D2E/DX2                !
 ! D108  D(10,22,26,55)          0.4096         estimate D2E/DX2                !
 ! D109  D(18,22,26,23)          0.4696         estimate D2E/DX2                !
 ! D110  D(18,22,26,55)        179.8949         estimate D2E/DX2                !
 ! D111  D(16,23,26,22)         -0.3345         estimate D2E/DX2                !
 ! D112  D(16,23,26,55)       -179.7639         estimate D2E/DX2                !
 ! D113  D(51,23,26,22)        179.4451         estimate D2E/DX2                !
 ! D114  D(51,23,26,55)          0.0157         estimate D2E/DX2                !
 ! D115  D(9,27,29,32)        -178.1894         estimate D2E/DX2                !
 ! D116  D(9,27,29,57)           1.541          estimate D2E/DX2                !
 ! D117  D(30,27,29,32)         -0.2774         estimate D2E/DX2                !
 ! D118  D(30,27,29,57)        179.453          estimate D2E/DX2                !
 ! D119  D(9,27,30,33)         177.9762         estimate D2E/DX2                !
 ! D120  D(9,27,30,58)          -0.4317         estimate D2E/DX2                !
 ! D121  D(29,27,30,33)          0.2035         estimate D2E/DX2                !
 ! D122  D(29,27,30,58)       -178.2043         estimate D2E/DX2                !
 ! D123  D(27,29,32,1)         179.7024         estimate D2E/DX2                !
 ! D124  D(27,29,32,31)          0.3034         estimate D2E/DX2                !
 ! D125  D(57,29,32,1)          -0.0313         estimate D2E/DX2                !
 ! D126  D(57,29,32,31)       -179.4303         estimate D2E/DX2                !
 ! D127  D(27,30,33,31)         -0.157          estimate D2E/DX2                !
 ! D128  D(27,30,33,60)       -179.4857         estimate D2E/DX2                !
 ! D129  D(58,30,33,31)        178.3506         estimate D2E/DX2                !
 ! D130  D(58,30,33,60)         -0.9782         estimate D2E/DX2                !
 ! D131  D(7,31,32,1)           -0.3441         estimate D2E/DX2                !
 ! D132  D(7,31,32,29)         179.0462         estimate D2E/DX2                !
 ! D133  D(33,31,32,1)        -179.635          estimate D2E/DX2                !
 ! D134  D(33,31,32,29)         -0.2447         estimate D2E/DX2                !
 ! D135  D(7,31,33,30)        -179.0878         estimate D2E/DX2                !
 ! D136  D(7,31,33,60)           0.2232         estimate D2E/DX2                !
 ! D137  D(32,31,33,30)          0.1738         estimate D2E/DX2                !
 ! D138  D(32,31,33,60)        179.4849         estimate D2E/DX2                !
 ! D139  D(7,34,35,36)         -59.9597         estimate D2E/DX2                !
 ! D140  D(7,34,35,37)         120.1738         estimate D2E/DX2                !
 ! D141  D(61,34,35,36)         59.7825         estimate D2E/DX2                !
 ! D142  D(61,34,35,37)       -120.0841         estimate D2E/DX2                !
 ! D143  D(62,34,35,36)        179.2646         estimate D2E/DX2                !
 ! D144  D(62,34,35,37)         -0.6019         estimate D2E/DX2                !
 ! D145  D(34,35,36,38)       -179.9634         estimate D2E/DX2                !
 ! D146  D(34,35,36,63)          0.0753         estimate D2E/DX2                !
 ! D147  D(37,35,36,38)         -0.0948         estimate D2E/DX2                !
 ! D148  D(37,35,36,63)        179.9438         estimate D2E/DX2                !
 ! D149  D(34,35,37,39)        179.9284         estimate D2E/DX2                !
 ! D150  D(34,35,37,64)         -0.0599         estimate D2E/DX2                !
 ! D151  D(36,35,37,39)          0.0612         estimate D2E/DX2                !
 ! D152  D(36,35,37,64)       -179.927          estimate D2E/DX2                !
 ! D153  D(35,36,38,3)        -179.9508         estimate D2E/DX2                !
 ! D154  D(35,36,38,40)          0.0723         estimate D2E/DX2                !
 ! D155  D(63,36,38,3)           0.0108         estimate D2E/DX2                !
 ! D156  D(63,36,38,40)       -179.9661         estimate D2E/DX2                !
 ! D157  D(35,37,39,40)         -0.0051         estimate D2E/DX2                !
 ! D158  D(35,37,39,65)       -179.9895         estimate D2E/DX2                !
 ! D159  D(64,37,39,40)        179.9833         estimate D2E/DX2                !
 ! D160  D(64,37,39,65)         -0.001          estimate D2E/DX2                !
 ! D161  D(3,38,40,39)        -179.9922         estimate D2E/DX2                !
 ! D162  D(3,38,40,66)          -0.0056         estimate D2E/DX2                !
 ! D163  D(36,38,40,39)         -0.0153         estimate D2E/DX2                !
 ! D164  D(36,38,40,66)        179.9713         estimate D2E/DX2                !
 ! D165  D(37,39,40,38)         -0.0182         estimate D2E/DX2                !
 ! D166  D(37,39,40,66)        179.9952         estimate D2E/DX2                !
 ! D167  D(65,39,40,38)        179.9662         estimate D2E/DX2                !
 ! D168  D(65,39,40,66)         -0.0205         estimate D2E/DX2                !
 --------------------------------------------------------------------------------
 Trust Radius=3.00D-01 FncErr=1.00D-07 GrdErr=1.00D-06 EigMax=2.50D+02 EigMin=1.00D-04
 Number of steps in this run=    366 maximum allowed number of steps=    396.
 GradGradGradGradGradGradGradGradGradGradGradGradGradGradGradGradGradGrad

 Stoichiometry    C29H26ClFN4O4S
 Framework group  C1[X(C29H26ClFN4O4S)]
 Deg. of freedom   192
 Full point group                 C1      NOp   1
 Largest Abelian subgroup         C1      NOp   1
 Largest concise Abelian subgroup C1      NOp   1
                         Standard orientation:                         
 ---------------------------------------------------------------------
 Center     Atomic      Atomic             Coordinates (Angstroms)
 Number     Number       Type             X           Y           Z
 ---------------------------------------------------------------------
      1         17           0       -3.096557   -1.343843    1.662833
      2         16           0        0.760638   -3.224025   -0.436254
      3          9           0       -8.469912   -2.298752   -1.265103
      4          8           0        5.360578   -0.935106    0.329729
      5          8           0        0.594171   -3.148125    1.089529
      6          8           0        0.863966   -1.719748   -0.731767
      7          8           0       -4.604439    0.773471    0.245237
      8          7           0        4.801561   -3.881473   -0.240732
      9          7           0        0.946319    1.645920    0.541920
     10          7           0        3.178922    5.065750   -0.448144
     11          7           0        1.141542    4.008154    0.043932
     12          6           0        3.473656   -3.337512    0.092226
     13          6           0        2.394440   -3.956037   -0.798012
     14          6           0        5.859802   -3.349049    0.635583
     15          6           0        6.212323   -1.928943    0.290582
     16          6           0        5.263452    1.472026   -0.117877
     17          6           0        5.967669    0.172937   -0.026043
     18          6           0        3.145317    2.706338    0.002868
     19          6           0        3.876260    1.503548    0.104813
     20          6           0        7.451575   -1.459286   -0.100635
     21          6           0        7.296999   -0.102209   -0.302302
     22          6           0        3.846468    3.891170   -0.326358
     23          6           0        5.934578    2.660758   -0.440039
     24          6           0        1.735215    2.792791    0.186616
     25          6           0       -0.826927   -3.775242   -1.118894
     26          6           0        5.229064    3.861393   -0.539544
     27          6           0       -0.480217    1.504792    0.461471
     28          6           0        1.838999    5.128433   -0.266125
     29          6           0       -1.060051    0.350867    1.020941
     30          6           0       -1.330722    2.429183   -0.182961
     31          6           0       -3.274387    1.041793    0.309849
     32          6           0       -2.436153    0.121595    0.950599
     33          6           0       -2.708533    2.199744   -0.255197
     34          6           0       -5.562466    1.546350   -0.379769
     35          6           0       -6.896071    0.863229   -0.273350
     36          6           0       -7.071121   -0.417665   -0.824514
     37          6           0       -7.977241    1.489375    0.369474
     38          6           0       -8.308555   -1.062610   -0.731917
     39          6           0       -9.213396    0.841192    0.459313
     40          6           0       -9.379097   -0.433141   -0.090362
     41          1           0        3.450045   -2.245765   -0.082659
     42          1           0        3.230191   -3.541525    1.158929
     43          1           0        2.347208   -5.051724   -0.623441
     44          1           0        2.638920   -3.759614   -1.863580
     45          1           0        5.551534   -3.410678    1.702666
     46          1           0        6.772060   -3.973842    0.515198
     47          1           0        4.765236   -4.916964   -0.087602
     48          1           0        3.393543    0.569471    0.334336
     49          1           0        8.359592   -2.034363   -0.225440
     50          1           0        8.064913    0.588012   -0.623300
     51          1           0        7.001123    2.667793   -0.619201
     52          1           0       -1.631024   -3.091054   -0.776446
     53          1           0       -0.783954   -3.748415   -2.227046
     54          1           0       -1.049419   -4.802566   -0.764471
     55          1           0        5.760040    4.770919   -0.792892
     56          1           0        1.436170    0.818803    0.900847
     57          1           0       -0.435194   -0.383270    1.514831
     58          1           0       -0.968647    3.321139   -0.660944
     59          1           0        1.323937    6.073577   -0.368197
     60          1           0       -3.324583    2.928334   -0.765078
     61          1           0       -5.310748    1.662429   -1.456686
     62          1           0       -5.593610    2.552909    0.092431
     63          1           0       -6.248238   -0.914233   -1.324309
     64          1           0       -7.865844    2.476449    0.800362
     65          1           0      -10.043571    1.327196    0.955174
     66          1           0      -10.337103   -0.931832   -0.018924
 ---------------------------------------------------------------------
 Rotational constants (GHZ):           0.1243105           0.0359155           0.0287702
 Standard basis: 6-311++G(d,p) (5D, 7F)
 There are  1118 symmetry adapted cartesian basis functions of A   symmetry.
 There are  1078 symmetry adapted basis functions of A   symmetry.
  1078 basis functions,  1705 primitive gaussians,  1118 cartesian basis functions
   151 alpha electrons      151 beta electrons
       nuclear repulsion energy      4662.4967771468 Hartrees.
 NAtoms=   66 NActive=   66 NUniq=   66 SFac= 1.00D+00 NAtFMM=   60 NAOKFM=T Big=T
 Integral buffers will be    131072 words long.
 Raffenetti 2 integral format.
 Two-electron integral symmetry is turned on.
 ------------------------------------------------------------------------------
 Polarizable Continuum Model (PCM)
 =================================
 Model                : PCM.
 Atomic radii         : UFF (Universal Force Field).
 Polarization charges : Total charges.
 Charge compensation  : None.
 Solution method      : On-the-fly selection.
 Cavity type          : Scaled VdW (van der Waals Surface) (Alpha=1.100).
 Cavity algorithm     : GePol (No added spheres)
                        Default sphere list used, NSphG=   66.
                        Lebedev-Laikov grids with approx.  5.0 points / Ang**2.
                        Smoothing algorithm: York/Karplus (Gamma=1.0000).
                        Polarization charges: spherical gaussians, with
                                              point-specific exponents (IZeta= 3).
                        Self-potential: point-specific (ISelfS= 7).
                        Self-field    : sphere-specific E.n sum rule (ISelfD= 2).
 1st derivatives      : Analytical E(r).r(x)/FMM algorithm (CHGder, D1EAlg=3).
                        Cavity 1st derivative terms included.
 Solvent              : Water, Eps=  78.355300 Eps(inf)=   1.777849
 ------------------------------------------------------------------------------
 One-electron integrals computed using PRISM.
 NBasis=  1078 RedAO= T EigKep=  1.04D-06  NBF=  1078
 NBsUse=  1068 1.00D-06 EigRej=  6.90D-07 NBFU=  1068
 ExpMin= 3.60D-02 ExpMax= 1.06D+05 ExpMxC= 3.62D+03 IAcc=3 IRadAn=         5 AccDes= 0.00D+00
 Harris functional with IExCor=  402 and IRadAn=       5 diagonalized for initial guess.
 HarFok:  IExCor=  402 AccDes= 0.00D+00 IRadAn=         5 IDoV= 1 UseB2=F ITyADJ=14
 ICtDFT=  3500011 ScaDFX=  1.000000  1.000000  1.000000  1.000000
 FoFCou: FMM=F IPFlag=           0 FMFlag=      100000 FMFlg1=        2001
         NFxFlg=           0 DoJE=T BraDBF=F KetDBF=T FulRan=T
         wScrn=  0.000000 ICntrl=       500 IOpCl=  0 I1Cent=   200000004 NGrid=           0
         NMat0=    1 NMatS0=      1 NMatT0=    0 NMatD0=    1 NMtDS0=    0 NMtDT0=    0
 Petite list used in FoFCou.
 Requested convergence on RMS density matrix=1.00D-08 within 128 cycles.
 Requested convergence on MAX density matrix=1.00D-06.
 Requested convergence on             energy=1.00D-06.
 No special actions if energy rises.
 Inv3:  Mode=1 IEnd=    75510867.
 Iteration    1 A*A^-1 deviation from unit magnitude is 8.33D-15 for   4972.
 Iteration    1 A*A^-1 deviation from orthogonality  is 2.95D-15 for   4985   1292.
 Iteration    1 A^-1*A deviation from unit magnitude is 8.33D-15 for   4972.
 Iteration    1 A^-1*A deviation from orthogonality  is 6.76D-15 for   4993   4978.
 Error on total polarization charges =  0.02706
 SCF Done:  E(RB3LYP) =  -2599.27521273     A.U. after   17 cycles
            NFock= 17  Conv=0.85D-09     -V/T= 2.0037

 **********************************************************************

            Population analysis using the SCF Density.

 **********************************************************************

 Orbital symmetries:
       Occupied  (A) (A) (A) (A) (A) (A) (A) (A) (A) (A) (A) (A)
                 (A) (A) (A) (A) (A) (A) (A) (A) (A) (A) (A) (A)
                 (A) (A) (A) (A) (A) (A) (A) (A) (A) (A) (A) (A)
                 (A) (A) (A) (A) (A) (A) (A) (A) (A) (A) (A) (A)
                 (A) (A) (A) (A) (A) (A) (A) (A) (A) (A) (A) (A)
                 (A) (A) (A) (A) (A) (A) (A) (A) (A) (A) (A) (A)
                 (A) (A) (A) (A) (A) (A) (A) (A) (A) (A) (A) (A)
                 (A) (A) (A) (A) (A) (A) (A) (A) (A) (A) (A) (A)
                 (A) (A) (A) (A) (A) (A) (A) (A) (A) (A) (A) (A)
                 (A) (A) (A) (A) (A) (A) (A) (A) (A) (A) (A) (A)
                 (A) (A) (A) (A) (A) (A) (A) (A) (A) (A) (A) (A)
                 (A) (A) (A) (A) (A) (A) (A) (A) (A) (A) (A) (A)
                 (A) (A) (A) (A) (A) (A) (A)
       Virtual   (A) (A) (A) (A) (A) (A) (A) (A) (A) (A) (A) (A)
                 (A) (A) (A) (A) (A) (A) (A) (A) (A) (A) (A) (A)
                 (A) (A) (A) (A) (A) (A) (A) (A) (A) (A) (A) (A)
                 (A) (A) (A) (A) (A) (A) (A) (A) (A) (A) (A) (A)
                 (A) (A) (A) (A) (A) (A) (A) (A) (A) (A) (A) (A)
                 (A) (A) (A) (A) (A) (A) (A) (A) (A) (A) (A) (A)
                 (A) (A) (A) (A) (A) (A) (A) (A) (A) (A) (A) (A)
                 (A) (A) (A) (A) (A) (A) (A) (A) (A) (A) (A) (A)
                 (A) (A) (A) (A) (A) (A) (A) (A) (A) (A) (A) (A)
                 (A) (A) (A) (A) (A) (A) (A) (A) (A) (A) (A) (A)
                 (A) (A) (A) (A) (A) (A) (A) (A) (A) (A) (A) (A)
                 (A) (A) (A) (A) (A) (A) (A) (A) (A) (A) (A) (A)
                 (A) (A) (A) (A) (A) (A) (A) (A) (A) (A) (A) (A)
                 (A) (A) (A) (A) (A) (A) (A) (A) (A) (A) (A) (A)
                 (A) (A) (A) (A) (A) (A) (A) (A) (A) (A) (A) (A)
                 (A) (A) (A) (A) (A) (A) (A) (A) (A) (A) (A) (A)
                 (A) (A) (A) (A) (A) (A) (A) (A) (A) (A) (A) (A)
                 (A) (A) (A) (A) (A) (A) (A) (A) (A) (A) (A) (A)
                 (A) (A) (A) (A) (A) (A) (A) (A) (A) (A) (A) (A)
                 (A) (A) (A) (A) (A) (A) (A) (A) (A) (A) (A) (A)
                 (A) (A) (A) (A) (A) (A) (A) (A) (A) (A) (A) (A)
                 (A) (A) (A) (A) (A) (A) (A) (A) (A) (A) (A) (A)
                 (A) (A) (A) (A) (A) (A) (A) (A) (A) (A) (A) (A)
                 (A) (A) (A) (A) (A) (A) (A) (A) (A) (A) (A) (A)
                 (A) (A) (A) (A) (A) (A) (A) (A) (A) (A) (A) (A)
                 (A) (A) (A) (A) (A) (A) (A) (A) (A) (A) (A) (A)
                 (A) (A) (A) (A) (A) (A) (A) (A) (A) (A) (A) (A)
                 (A) (A) (A) (A) (A) (A) (A) (A) (A) (A) (A) (A)
                 (A) (A) (A) (A) (A) (A) (A) (A) (A) (A) (A) (A)
                 (A) (A) (A) (A) (A) (A) (A) (A) (A) (A) (A) (A)
                 (A) (A) (A) (A) (A) (A) (A) (A) (A) (A) (A) (A)
                 (A) (A) (A) (A) (A) (A) (A) (A) (A) (A) (A) (A)
                 (A) (A) (A) (A) (A) (A) (A) (A) (A) (A) (A) (A)
                 (A) (A) (A) (A) (A) (A) (A) (A) (A) (A) (A) (A)
                 (A) (A) (A) (A) (A) (A) (A) (A) (A) (A) (A) (A)
                 (A) (A) (A) (A) (A) (A) (A) (A) (A) (A) (A) (A)
                 (A) (A) (A) (A) (A) (A) (A) (A) (A) (A) (A) (A)
                 (A) (A) (A) (A) (A) (A) (A) (A) (A) (A) (A) (A)
                 (A) (A) (A) (A) (A) (A) (A) (A) (A) (A) (A) (A)
                 (A) (A) (A) (A) (A) (A) (A) (A) (A) (A) (A) (A)
                 (A) (A) (A) (A) (A) (A) (A) (A) (A) (A) (A) (A)
                 (A) (A) (A) (A) (A) (A) (A) (A) (A) (A) (A) (A)
                 (A) (A) (A) (A) (A) (A) (A) (A) (A) (A) (A) (A)
                 (A) (A) (A) (A) (A) (A) (A) (A) (A) (A) (A) (A)
                 (A) (A) (A) (A) (A) (A) (A) (A) (A) (A) (A) (A)
                 (A) (A) (A) (A) (A) (A) (A) (A) (A) (A) (A) (A)
                 (A) (A) (A) (A) (A) (A) (A) (A) (A) (A) (A) (A)
                 (A) (A) (A) (A) (A) (A) (A) (A) (A) (A) (A) (A)
                 (A) (A) (A) (A) (A) (A) (A) (A) (A) (A) (A) (A)
                 (A) (A) (A) (A) (A) (A) (A) (A) (A) (A) (A) (A)
                 (A) (A) (A) (A) (A) (A) (A) (A) (A) (A) (A) (A)
                 (A) (A) (A) (A) (A) (A) (A) (A) (A) (A) (A) (A)
                 (A) (A) (A) (A) (A) (A) (A) (A) (A) (A) (A) (A)
                 (A) (A) (A) (A) (A) (A) (A) (A) (A) (A) (A) (A)
                 (A) (A) (A) (A) (A) (A) (A) (A) (A) (A) (A) (A)
                 (A) (A) (A) (A) (A) (A) (A) (A) (A) (A) (A) (A)
                 (A) (A) (A) (A) (A) (A) (A) (A) (A) (A) (A) (A)
                 (A) (A) (A) (A) (A) (A) (A) (A) (A) (A) (A) (A)
                 (A) (A) (A) (A) (A) (A) (A) (A) (A) (A) (A) (A)
                 (A) (A) (A) (A) (A) (A) (A) (A) (A) (A) (A) (A)
                 (A) (A) (A) (A) (A) (A) (A) (A) (A) (A) (A) (A)
                 (A) (A) (A) (A) (A) (A) (A) (A) (A) (A) (A) (A)
                 (A) (A) (A) (A) (A) (A) (A) (A) (A) (A) (A) (A)
                 (A) (A) (A) (A) (A) (A) (A) (A) (A) (A) (A) (A)
                 (A) (A) (A) (A) (A) (A) (A) (A) (A) (A) (A) (A)
                 (A) (A) (A) (A) (A) (A) (A) (A) (A) (A) (A) (A)
                 (A) (A) (A) (A) (A) (A) (A) (A) (A) (A) (A) (A)
                 (A) (A) (A) (A) (A) (A) (A) (A) (A) (A) (A) (A)
                 (A) (A) (A) (A) (A) (A) (A) (A) (A) (A) (A) (A)
                 (A) (A) (A) (A) (A) (A) (A) (A) (A) (A) (A) (A)
                 (A) (A) (A) (A) (A) (A) (A) (A) (A) (A) (A) (A)
                 (A) (A) (A) (A) (A) (A) (A) (A) (A) (A) (A) (A)
                 (A) (A) (A) (A) (A) (A) (A) (A) (A) (A) (A) (A)
                 (A) (A) (A) (A) (A) (A) (A) (A) (A) (A) (A) (A)
                 (A) (A) (A) (A) (A) (A) (A) (A) (A) (A) (A) (A)
                 (A) (A) (A) (A) (A) (A) (A) (A) (A) (A) (A) (A)
                 (A) (A) (A) (A) (A)
 The electronic state is 1-A.
 Alpha  occ. eigenvalues -- -101.56425 -89.06125 -24.70535 -19.21577 -19.16540
 Alpha  occ. eigenvalues --  -19.10565 -19.10348 -14.37124 -14.32512 -14.32040
 Alpha  occ. eigenvalues --  -14.31579 -10.28782 -10.27494 -10.25664 -10.25325
 Alpha  occ. eigenvalues --  -10.24637 -10.24479 -10.24124 -10.24100 -10.23917
 Alpha  occ. eigenvalues --  -10.23823 -10.23568 -10.22930 -10.22204 -10.22111
 Alpha  occ. eigenvalues --  -10.21405 -10.20871 -10.20484 -10.20025 -10.19780
 Alpha  occ. eigenvalues --  -10.19622 -10.19452 -10.19384 -10.19322 -10.19321
 Alpha  occ. eigenvalues --  -10.19010 -10.18904 -10.18605 -10.17701 -10.17389
 Alpha  occ. eigenvalues --   -9.47881  -8.12617  -7.24345  -7.23372  -7.23319
 Alpha  occ. eigenvalues --   -6.08834  -6.08798  -6.08706  -1.24241  -1.17066
 Alpha  occ. eigenvalues --   -1.09518  -1.08379  -0.99446  -0.95623  -0.95136
 Alpha  occ. eigenvalues --   -0.92696  -0.90026  -0.89056  -0.87762  -0.86800
 Alpha  occ. eigenvalues --   -0.84159  -0.82417  -0.81925  -0.80828  -0.79961
 Alpha  occ. eigenvalues --   -0.78603  -0.77869  -0.76456  -0.75917  -0.75341
 Alpha  occ. eigenvalues --   -0.74880  -0.70697  -0.70227  -0.68029  -0.66423
 Alpha  occ. eigenvalues --   -0.64635  -0.64153  -0.63833  -0.63206  -0.62095
 Alpha  occ. eigenvalues --   -0.61063  -0.60484  -0.60054  -0.57639  -0.57281
 Alpha  occ. eigenvalues --   -0.56348  -0.55786  -0.55159  -0.53718  -0.52859
 Alpha  occ. eigenvalues --   -0.52162  -0.51881  -0.51480  -0.50999  -0.49793
 Alpha  occ. eigenvalues --   -0.49766  -0.49493  -0.49094  -0.48414  -0.47948
 Alpha  occ. eigenvalues --   -0.47853  -0.47659  -0.47218  -0.46705  -0.46380
 Alpha  occ. eigenvalues --   -0.45967  -0.45412  -0.45351  -0.45161  -0.44687
 Alpha  occ. eigenvalues --   -0.44207  -0.43760  -0.43472  -0.42611  -0.42467
 Alpha  occ. eigenvalues --   -0.42303  -0.42141  -0.41935  -0.41048  -0.40895
 Alpha  occ. eigenvalues --   -0.39849  -0.39190  -0.38971  -0.38868  -0.38310
 Alpha  occ. eigenvalues --   -0.38065  -0.37665  -0.37520  -0.37128  -0.36644
 Alpha  occ. eigenvalues --   -0.36563  -0.34740  -0.34084  -0.33659  -0.33112
 Alpha  occ. eigenvalues --   -0.32497  -0.30991  -0.30640  -0.30385  -0.30108
 Alpha  occ. eigenvalues --   -0.29811  -0.28732  -0.27156  -0.27078  -0.26484
 Alpha  occ. eigenvalues --   -0.26384  -0.25911  -0.25358  -0.25302  -0.22390
 Alpha  occ. eigenvalues --   -0.20784
 Alpha virt. eigenvalues --   -0.08195  -0.05694  -0.04400  -0.03878  -0.03178
 Alpha virt. eigenvalues --   -0.02398  -0.01881  -0.01177  -0.00746  -0.00458
 Alpha virt. eigenvalues --   -0.00402  -0.00220   0.00136   0.00179   0.00787
 Alpha virt. eigenvalues --    0.00835   0.01061   0.01326   0.01589   0.01739
 Alpha virt. eigenvalues --    0.02050   0.02341   0.02596   0.02872   0.03056
 Alpha virt. eigenvalues --    0.03295   0.03532   0.03650   0.03832   0.03969
 Alpha virt. eigenvalues --    0.04332   0.04499   0.05037   0.05206   0.05357
 Alpha virt. eigenvalues --    0.05367   0.05614   0.05861   0.06345   0.06390
 Alpha virt. eigenvalues --    0.06552   0.06753   0.07053   0.07269   0.07827
 Alpha virt. eigenvalues --    0.07903   0.08258   0.08569   0.08622   0.08747
 Alpha virt. eigenvalues --    0.08928   0.09160   0.09296   0.09510   0.09748
 Alpha virt. eigenvalues --    0.10045   0.10177   0.10269   0.10409   0.10518
 Alpha virt. eigenvalues --    0.10699   0.10747   0.11061   0.11125   0.11275
 Alpha virt. eigenvalues --    0.11483   0.11628   0.11857   0.11862   0.12037
 Alpha virt. eigenvalues --    0.12116   0.12356   0.12402   0.12587   0.12632
 Alpha virt. eigenvalues --    0.12845   0.12941   0.13151   0.13265   0.13443
 Alpha virt. eigenvalues --    0.13526   0.13603   0.13747   0.13925   0.13975
 Alpha virt. eigenvalues --    0.14159   0.14294   0.14479   0.14617   0.14677
 Alpha virt. eigenvalues --    0.14921   0.15049   0.15140   0.15331   0.15430
 Alpha virt. eigenvalues --    0.15655   0.15748   0.15928   0.16139   0.16357
 Alpha virt. eigenvalues --    0.16448   0.16516   0.16668   0.16866   0.16957
 Alpha virt. eigenvalues --    0.17203   0.17394   0.17620   0.17702   0.17870
 Alpha virt. eigenvalues --    0.17950   0.18125   0.18296   0.18345   0.18661
 Alpha virt. eigenvalues --    0.18715   0.19015   0.19132   0.19347   0.19489
 Alpha virt. eigenvalues --    0.19646   0.19814   0.20040   0.20370   0.20481
 Alpha virt. eigenvalues --    0.20690   0.20717   0.20933   0.20980   0.21243
 Alpha virt. eigenvalues --    0.21354   0.21462   0.21839   0.21936   0.22034
 Alpha virt. eigenvalues --    0.22248   0.22328   0.22519   0.22704   0.22951
 Alpha virt. eigenvalues --    0.23068   0.23283   0.23652   0.23754   0.24013
 Alpha virt. eigenvalues --    0.24121   0.24319   0.24504   0.24707   0.24892
 Alpha virt. eigenvalues --    0.25036   0.25281   0.25356   0.25671   0.25786
 Alpha virt. eigenvalues --    0.25958   0.26111   0.26228   0.26438   0.26538
 Alpha virt. eigenvalues --    0.26857   0.26928   0.27069   0.27169   0.27362
 Alpha virt. eigenvalues --    0.27687   0.27901   0.28031   0.28244   0.28316
 Alpha virt. eigenvalues --    0.28490   0.28555   0.28646   0.28883   0.29203
 Alpha virt. eigenvalues --    0.29316   0.29439   0.29656   0.29727   0.29954
 Alpha virt. eigenvalues --    0.30209   0.30290   0.30466   0.30818   0.31007
 Alpha virt. eigenvalues --    0.31085   0.31332   0.31403   0.31617   0.31864
 Alpha virt. eigenvalues --    0.32007   0.32113   0.32283   0.32427   0.32827
 Alpha virt. eigenvalues --    0.33018   0.33182   0.33349   0.33598   0.33739
 Alpha virt. eigenvalues --    0.34036   0.34309   0.34352   0.34568   0.34729
 Alpha virt. eigenvalues --    0.34964   0.35011   0.35237   0.35657   0.35758
 Alpha virt. eigenvalues --    0.36079   0.36199   0.36492   0.36813   0.37018
 Alpha virt. eigenvalues --    0.37244   0.37360   0.37728   0.37831   0.37907
 Alpha virt. eigenvalues --    0.38178   0.38406   0.38429   0.38696   0.38954
 Alpha virt. eigenvalues --    0.39140   0.39544   0.39639   0.39677   0.40358
 Alpha virt. eigenvalues --    0.40418   0.40822   0.40977   0.41121   0.41525
 Alpha virt. eigenvalues --    0.41978   0.42334   0.42590   0.42838   0.43515
 Alpha virt. eigenvalues --    0.43737   0.43937   0.44366   0.44839   0.45193
 Alpha virt. eigenvalues --    0.45327   0.45658   0.46042   0.46380   0.46724
 Alpha virt. eigenvalues --    0.47178   0.47721   0.48050   0.48876   0.49123
 Alpha virt. eigenvalues --    0.49395   0.49883   0.50536   0.51121   0.51944
 Alpha virt. eigenvalues --    0.52978   0.53097   0.53473   0.53747   0.54016
 Alpha virt. eigenvalues --    0.54261   0.54572   0.55031   0.55131   0.55524
 Alpha virt. eigenvalues --    0.55820   0.56313   0.56644   0.56819   0.57117
 Alpha virt. eigenvalues --    0.57275   0.57524   0.57809   0.57983   0.58271
 Alpha virt. eigenvalues --    0.58477   0.59036   0.59214   0.59568   0.59663
 Alpha virt. eigenvalues --    0.60195   0.60427   0.60756   0.60825   0.61145
 Alpha virt. eigenvalues --    0.61844   0.61903   0.62191   0.62564   0.63123
 Alpha virt. eigenvalues --    0.63717   0.64106   0.64238   0.64672   0.64822
 Alpha virt. eigenvalues --    0.65012   0.65126   0.65392   0.66163   0.66296
 Alpha virt. eigenvalues --    0.66493   0.66603   0.66893   0.67340   0.67671
 Alpha virt. eigenvalues --    0.67959   0.68280   0.68659   0.69228   0.69370
 Alpha virt. eigenvalues --    0.69429   0.69762   0.70237   0.70371   0.70732
 Alpha virt. eigenvalues --    0.71363   0.71730   0.71868   0.72370   0.72530
 Alpha virt. eigenvalues --    0.72956   0.73157   0.73391   0.73635   0.74212
 Alpha virt. eigenvalues --    0.74301   0.74513   0.74987   0.75335   0.75416
 Alpha virt. eigenvalues --    0.75825   0.76162   0.76299   0.76472   0.76651
 Alpha virt. eigenvalues --    0.77113   0.77303   0.77675   0.78058   0.78424
 Alpha virt. eigenvalues --    0.78914   0.79271   0.80028   0.80085   0.80596
 Alpha virt. eigenvalues --    0.81026   0.81290   0.82062   0.82263   0.82591
 Alpha virt. eigenvalues --    0.83092   0.83891   0.84013   0.84734   0.85236
 Alpha virt. eigenvalues --    0.85595   0.85762   0.85813   0.86551   0.87273
 Alpha virt. eigenvalues --    0.87433   0.87753   0.88083   0.88476   0.88719
 Alpha virt. eigenvalues --    0.89450   0.89750   0.89958   0.90421   0.90795
 Alpha virt. eigenvalues --    0.91020   0.91267   0.91372   0.91676   0.92295
 Alpha virt. eigenvalues --    0.92395   0.92815   0.93215   0.93349   0.93711
 Alpha virt. eigenvalues --    0.94240   0.94485   0.94665   0.94965   0.95792
 Alpha virt. eigenvalues --    0.96409   0.96683   0.97041   0.97204   0.97856
 Alpha virt. eigenvalues --    0.98120   0.98704   0.98878   0.99159   0.99455
 Alpha virt. eigenvalues --    0.99602   0.99661   1.00140   1.00328   1.00860
 Alpha virt. eigenvalues --    1.01253   1.01648   1.02136   1.02661   1.02711
 Alpha virt. eigenvalues --    1.03009   1.03287   1.04343   1.04488   1.05506
 Alpha virt. eigenvalues --    1.05570   1.05776   1.06295   1.06770   1.06976
 Alpha virt. eigenvalues --    1.07423   1.07824   1.08210   1.08510   1.09065
 Alpha virt. eigenvalues --    1.09734   1.10015   1.10293   1.10638   1.11211
 Alpha virt. eigenvalues --    1.11412   1.11898   1.12255   1.12837   1.13863
 Alpha virt. eigenvalues --    1.13969   1.14268   1.14940   1.15208   1.15796
 Alpha virt. eigenvalues --    1.17191   1.17854   1.18274   1.19115   1.19401
 Alpha virt. eigenvalues --    1.20293   1.21397   1.21665   1.22321   1.22660
 Alpha virt. eigenvalues --    1.23203   1.24294   1.24821   1.25722   1.25969
 Alpha virt. eigenvalues --    1.26737   1.27130   1.27643   1.27922   1.29047
 Alpha virt. eigenvalues --    1.29669   1.30009   1.30563   1.32790   1.33179
 Alpha virt. eigenvalues --    1.33463   1.34252   1.34652   1.35628   1.36358
 Alpha virt. eigenvalues --    1.37390   1.37592   1.39328   1.40502   1.41208
 Alpha virt. eigenvalues --    1.42002   1.42471   1.42515   1.42790   1.43071
 Alpha virt. eigenvalues --    1.43528   1.45812   1.46890   1.47123   1.48205
 Alpha virt. eigenvalues --    1.48756   1.49431   1.50036   1.50715   1.51317
 Alpha virt. eigenvalues --    1.51909   1.52116   1.52585   1.52631   1.53071
 Alpha virt. eigenvalues --    1.53185   1.53673   1.54407   1.54470   1.54751
 Alpha virt. eigenvalues --    1.55141   1.55350   1.55898   1.55966   1.56101
 Alpha virt. eigenvalues --    1.56687   1.56797   1.57109   1.57428   1.57773
 Alpha virt. eigenvalues --    1.58728   1.59032   1.59272   1.59289   1.59728
 Alpha virt. eigenvalues --    1.60651   1.60957   1.61077   1.61804   1.62917
 Alpha virt. eigenvalues --    1.63804   1.64056   1.65106   1.65921   1.66112
 Alpha virt. eigenvalues --    1.66298   1.66535   1.67211   1.67742   1.67888
 Alpha virt. eigenvalues --    1.68347   1.68993   1.69494   1.69846   1.70095
 Alpha virt. eigenvalues --    1.70424   1.71759   1.72283   1.72912   1.73162
 Alpha virt. eigenvalues --    1.73942   1.74126   1.74650   1.75276   1.75382
 Alpha virt. eigenvalues --    1.75569   1.75963   1.76128   1.76410   1.76738
 Alpha virt. eigenvalues --    1.77713   1.78302   1.78624   1.79442   1.79737
 Alpha virt. eigenvalues --    1.80233   1.81683   1.81830   1.83427   1.83524
 Alpha virt. eigenvalues --    1.84501   1.84684   1.85203   1.85721   1.86109
 Alpha virt. eigenvalues --    1.86807   1.87902   1.88357   1.89482   1.89746
 Alpha virt. eigenvalues --    1.89931   1.90486   1.90654   1.91084   1.91274
 Alpha virt. eigenvalues --    1.91507   1.92010   1.92304   1.92484   1.93380
 Alpha virt. eigenvalues --    1.93712   1.95310   1.95732   1.96207   1.96481
 Alpha virt. eigenvalues --    1.96621   1.97350   1.97525   1.98506   1.99248
 Alpha virt. eigenvalues --    1.99455   2.00187   2.00547   2.01211   2.01671
 Alpha virt. eigenvalues --    2.02036   2.02480   2.03267   2.03722   2.03898
 Alpha virt. eigenvalues --    2.04632   2.05149   2.05928   2.06381   2.07056
 Alpha virt. eigenvalues --    2.07801   2.08220   2.08606   2.08771   2.10193
 Alpha virt. eigenvalues --    2.11183   2.11331   2.13195   2.14323   2.14634
 Alpha virt. eigenvalues --    2.14738   2.15576   2.16361   2.16566   2.17173
 Alpha virt. eigenvalues --    2.17813   2.17891   2.18280   2.19034   2.20795
 Alpha virt. eigenvalues --    2.21714   2.22241   2.23360   2.23564   2.25012
 Alpha virt. eigenvalues --    2.26405   2.27149   2.27337   2.28895   2.29500
 Alpha virt. eigenvalues --    2.29732   2.30888   2.31817   2.32645   2.33777
 Alpha virt. eigenvalues --    2.34177   2.34515   2.34935   2.36167   2.38399
 Alpha virt. eigenvalues --    2.39643   2.40324   2.41064   2.41796   2.43082
 Alpha virt. eigenvalues --    2.43506   2.43812   2.44975   2.45542   2.45646
 Alpha virt. eigenvalues --    2.46349   2.46591   2.47160   2.47435   2.48827
 Alpha virt. eigenvalues --    2.48974   2.49676   2.50445   2.51069   2.52164
 Alpha virt. eigenvalues --    2.52755   2.53718   2.54734   2.55954   2.56943
 Alpha virt. eigenvalues --    2.57837   2.58413   2.59969   2.60508   2.60725
 Alpha virt. eigenvalues --    2.60967   2.62427   2.62971   2.63593   2.63847
 Alpha virt. eigenvalues --    2.64817   2.65388   2.67248   2.67610   2.68303
 Alpha virt. eigenvalues --    2.68555   2.68762   2.69867   2.70134   2.70686
 Alpha virt. eigenvalues --    2.70906   2.71164   2.71628   2.72874   2.73108
 Alpha virt. eigenvalues --    2.74049   2.74284   2.74489   2.74837   2.75726
 Alpha virt. eigenvalues --    2.76143   2.76588   2.76764   2.77047   2.77709
 Alpha virt. eigenvalues --    2.78334   2.78864   2.79349   2.79708   2.80565
 Alpha virt. eigenvalues --    2.81015   2.81446   2.81712   2.81941   2.82846
 Alpha virt. eigenvalues --    2.83813   2.84322   2.84560   2.84846   2.85660
 Alpha virt. eigenvalues --    2.86014   2.86279   2.87036   2.87236   2.87775
 Alpha virt. eigenvalues --    2.88183   2.88585   2.89344   2.89528   2.90051
 Alpha virt. eigenvalues --    2.90116   2.90526   2.90911   2.91341   2.91705
 Alpha virt. eigenvalues --    2.92558   2.92648   2.92865   2.93900   2.94397
 Alpha virt. eigenvalues --    2.94919   2.96111   2.96578   2.98380   2.98887
 Alpha virt. eigenvalues --    2.99388   3.00214   3.01736   3.02287   3.02535
 Alpha virt. eigenvalues --    3.04193   3.06121   3.06495   3.07621   3.07976
 Alpha virt. eigenvalues --    3.08566   3.09711   3.10301   3.12681   3.13408
 Alpha virt. eigenvalues --    3.14691   3.14835   3.16292   3.17873   3.18228
 Alpha virt. eigenvalues --    3.18254   3.19274   3.20241   3.22474   3.24222
 Alpha virt. eigenvalues --    3.24648   3.26747   3.27949   3.28423   3.28884
 Alpha virt. eigenvalues --    3.30489   3.33725   3.35098   3.35541   3.36560
 Alpha virt. eigenvalues --    3.37190   3.38085   3.38790   3.39647   3.40973
 Alpha virt. eigenvalues --    3.42388   3.44246   3.45098   3.49250   3.49380
 Alpha virt. eigenvalues --    3.50020   3.51099   3.55014   3.55488   3.56624
 Alpha virt. eigenvalues --    3.58172   3.58556   3.59261   3.62001   3.62974
 Alpha virt. eigenvalues --    3.63124   3.65492   3.66522   3.67289   3.67772
 Alpha virt. eigenvalues --    3.68218   3.71901   3.72619   3.72872   3.77191
 Alpha virt. eigenvalues --    3.77358   3.78965   3.79805   3.80348   3.81389
 Alpha virt. eigenvalues --    3.84102   3.85952   3.90167   3.93189   3.93826
 Alpha virt. eigenvalues --    3.94566   3.95802   3.96848   4.00846   4.05719
 Alpha virt. eigenvalues --    4.05798   4.06365   4.08874   4.11107   4.12550
 Alpha virt. eigenvalues --    4.13665   4.14320   4.15743   4.16266   4.17166
 Alpha virt. eigenvalues --    4.21031   4.22561   4.29271   4.30353   4.37309
 Alpha virt. eigenvalues --    4.39797   4.42700   4.46444   4.59983   4.70456
 Alpha virt. eigenvalues --    4.80796   4.82972   4.83627   4.84213   4.84599
 Alpha virt. eigenvalues --    4.85632   4.94222   4.99788   5.07236   5.10948
 Alpha virt. eigenvalues --    5.12634   5.13524   5.14309   5.17886   5.22670
 Alpha virt. eigenvalues --    5.25192   5.39868   5.40545   5.53141   5.87686
 Alpha virt. eigenvalues --    5.96711   6.31643   6.43770   6.73188   8.11666
 Alpha virt. eigenvalues --    9.82611  17.34025  17.37009  17.43070  23.56171
 Alpha virt. eigenvalues --   23.58671  23.62870  23.78401  23.79746  23.83463
 Alpha virt. eigenvalues --   23.84485  23.86026  23.86333  23.87106  23.89085
 Alpha virt. eigenvalues --   23.90293  23.90965  23.91175  23.94164  23.94450
 Alpha virt. eigenvalues --   23.95100  23.97355  23.99645  24.02820  24.04288
 Alpha virt. eigenvalues --   24.05501  24.05601  24.05633  24.07105  24.13577
 Alpha virt. eigenvalues --   24.14777  24.15139  24.22865  26.03144  26.27504
 Alpha virt. eigenvalues --   26.72640  35.54185  35.58495  35.64585  35.68463
 Alpha virt. eigenvalues --   49.93177  49.94910  49.96325  49.97951  66.79346
 Alpha virt. eigenvalues --  189.25137 215.82801
          Condensed to atoms (all electrons):
 Mulliken charges:
               1
     1  Cl   0.418189
     2  S    0.176902
     3  F   -0.184718
     4  O    0.103632
     5  O   -0.361645
     6  O   -0.311121
     7  O    0.006435
     8  N   -0.031299
     9  N    0.197564
    10  N   -0.132963
    11  N   -0.257749
    12  C   -0.466326
    13  C   -0.370547
    14  C   -0.477148
    15  C    0.682080
    16  C    0.577717
    17  C    0.145519
    18  C    1.063836
    19  C   -0.556448
    20  C   -0.568658
    21  C   -0.307566
    22  C   -0.777566
    23  C   -0.702760
    24  C    0.269274
    25  C   -0.661140
    26  C   -1.000082
    27  C   -1.159906
    28  C    0.172492
    29  C   -0.190788
    30  C    0.165912
    31  C   -1.070558
    32  C    0.714377
    33  C    0.162465
    34  C    0.070258
    35  C    0.332422
    36  C    0.231511
    37  C   -1.037979
    38  C   -0.406937
    39  C   -0.282648
    40  C    0.111463
    41  H    0.348727
    42  H    0.179011
    43  H    0.243521
    44  H    0.276297
    45  H    0.167667
    46  H    0.232075
    47  H    0.272359
    48  H   -0.048265
    49  H    0.191118
    50  H    0.181614
    51  H    0.151770
    52  H    0.187016
    53  H    0.234860
    54  H    0.235630
    55  H    0.230852
    56  H    0.382743
    57  H    0.252985
    58  H    0.285684
    59  H    0.255618
    60  H    0.240151
    61  H    0.180180
    62  H    0.199477
    63  H    0.224892
    64  H    0.175429
    65  H    0.210671
    66  H    0.222418
 Sum of Mulliken charges =  -0.00000
 Mulliken charges with hydrogens summed into heavy atoms:
               1
     1  Cl   0.418189
     2  S    0.176902
     3  F   -0.184718
     4  O    0.103632
     5  O   -0.361645
     6  O   -0.311121
     7  O    0.006435
     8  N    0.241060
     9  N    0.580308
    10  N   -0.132963
    11  N   -0.257749
    12  C    0.061412
    13  C    0.149271
    14  C   -0.077407
    15  C    0.682080
    16  C    0.577717
    17  C    0.145519
    18  C    1.063836
    19  C   -0.604712
    20  C   -0.377540
    21  C   -0.125952
    22  C   -0.777566
    23  C   -0.550989
    24  C    0.269274
    25  C   -0.003634
    26  C   -0.769230
    27  C   -1.159906
    28  C    0.428110
    29  C    0.062197
    30  C    0.451595
    31  C   -1.070558
    32  C    0.714377
    33  C    0.402615
    34  C    0.449915
    35  C    0.332422
    36  C    0.456403
    37  C   -0.862550
    38  C   -0.406937
    39  C   -0.071977
    40  C    0.333880
 Electronic spatial extent (au):  <R**2>=          34053.8163
 Charge=              0.0000 electrons
 Dipole moment (field-independent basis, Debye):
    X=              3.2499    Y=             -8.1574    Z=             -3.7599  Tot=              9.5521
 Quadrupole moment (field-independent basis, Debye-Ang):
   XX=           -191.1942   YY=           -216.2123   ZZ=           -255.7397
   XY=            -52.4024   XZ=              4.6515   YZ=             11.6887
 Traceless Quadrupole moment (field-independent basis, Debye-Ang):
   XX=             29.8545   YY=              4.8365   ZZ=            -34.6910
   XY=            -52.4024   XZ=              4.6515   YZ=             11.6887
 Octapole moment (field-independent basis, Debye-Ang**2):
  XXX=            107.3526  YYY=           -402.8071  ZZZ=            -14.5236  XYY=             12.3379
  XXY=             29.5339  XXZ=             72.7002  XZZ=            -19.2349  YZZ=            -29.5101
  YYZ=            -53.9293  XYZ=            -20.9939
 Hexadecapole moment (field-independent basis, Debye-Ang**3):
 XXXX=         -29758.5009 YYYY=          -9365.6640 ZZZZ=           -992.0079 XXXY=          -1714.6598
 XXXZ=           -900.0967 YYYX=          -1198.9260 YYYZ=            221.1600 ZZZX=             94.8711
 ZZZY=             63.6753 XXYY=          -7162.3032 XXZZ=          -6423.3705 YYZZ=          -1887.2838
 XXYZ=           -215.5376 YYXZ=             73.7626 ZZXY=            -19.0951
 N-N= 4.662496777147D+03 E-N=-1.542746676711D+04  KE= 2.589757629821D+03
 D1PCM: PCM CHGder 1st derivatives, ID1Alg=3 FixD1E=F DoIter=F DoCFld=F I1PDM=0.
 Calling FoFJK, ICntrl=      2127 FMM=T ISym2X=0 I1Cent= 0 IOpClX= 0 NMat=1 NMatS=1 NMatT=0.
 ***** Axes restored to original set *****
 -------------------------------------------------------------------
 Center     Atomic                   Forces (Hartrees/Bohr)
 Number     Number              X              Y              Z
 -------------------------------------------------------------------
      1       17           0.000009017   -0.001668062   -0.001036632
      2       16           0.001029564   -0.120287911    0.071906956
      3        9          -0.000331601   -0.000991286    0.000151937
      4        8           0.053106999   -0.003717567    0.013808956
      5        8           0.002653799    0.047568915   -0.020211000
      6        8          -0.001640888    0.037984140   -0.032800139
      7        8          -0.013139064    0.036004074    0.028901431
      8        7           0.010481614    0.025201914   -0.001323856
      9        7          -0.011282885   -0.024414673   -0.011648702
     10        7           0.019083024   -0.039503092   -0.007740483
     11        7           0.018308356    0.014631163    0.006656859
     12        6           0.006240291   -0.013867293    0.014109099
     13        6          -0.004006136    0.033251328   -0.019892406
     14        6           0.004980466   -0.005861190    0.005879685
     15        6          -0.048077225    0.052630799    0.001561265
     16        6           0.024118093    0.027720612    0.011969761
     17        6          -0.040188456   -0.058176621   -0.024794894
     18        6          -0.007363082    0.027795872    0.006864140
     19        6          -0.014074399   -0.002211773   -0.003429934
     20        6           0.003098983    0.027159804    0.007839923
     21        6           0.002469634   -0.027447758   -0.006472604
     22        6           0.025445392   -0.014627323    0.000435535
     23        6           0.003572336   -0.023822280   -0.005493445
     24        6           0.030021379   -0.017592058    0.004703914
     25        6           0.007731002    0.027515915   -0.018184620
     26        6          -0.021381825    0.021587934    0.001690556
     27        6          -0.005776054   -0.005994028   -0.002745702
     28        6          -0.048891860    0.061665201    0.008385271
     29        6           0.000848082   -0.002547800    0.002024575
     30        6           0.005803596    0.005813035    0.000215450
     31        6           0.007368111   -0.015945508   -0.013922120
     32        6          -0.010530659   -0.004357941   -0.002372400
     33        6          -0.007720377    0.010762133    0.008216760
     34        6           0.001721373   -0.029823660   -0.023141804
     35        6           0.012894807    0.002020338    0.005275436
     36        6           0.004857429    0.005136002   -0.001246118
     37        6          -0.000430494    0.005778424   -0.002228951
     38        6          -0.007476884   -0.023811269    0.007525872
     39        6          -0.007402379    0.004841626   -0.004645277
     40        6           0.002806008    0.005184014   -0.001224552
     41        1          -0.002987650    0.010658675    0.005845428
     42        1          -0.000402450   -0.004405874   -0.009135962
     43        1           0.003317575   -0.010190716   -0.005178482
     44        1           0.008188221    0.001238991    0.010210924
     45        1          -0.002577360    0.000677597   -0.004186067
     46        1           0.010263676   -0.010632224   -0.000889228
     47        1          -0.003679737   -0.021242883   -0.006304278
     48        1           0.003549829    0.002117433    0.000840530
     49        1           0.003633470    0.000749780    0.000930075
     50        1           0.003484859   -0.001077229    0.000663822
     51        1          -0.000740062    0.000869092    0.000297045
     52        1          -0.018916789    0.002782517    0.003505108
     53        1          -0.001378756    0.000555508    0.011950055
     54        1          -0.005810300   -0.009442380   -0.005442133
     55        1           0.002646406   -0.001316842    0.000247156
     56        1           0.003182242   -0.012487454   -0.009423831
     57        1           0.000192591    0.000424682   -0.001103240
     58        1          -0.006381992   -0.000291403    0.002392976
     59        1           0.000891288   -0.000078458    0.000248504
     60        1           0.001606974    0.001066543    0.000564725
     61        1           0.000431132   -0.003465714    0.007079482
     62        1           0.003367942    0.007571171   -0.006188574
     63        1          -0.000347971    0.000576847   -0.000226138
     64        1          -0.001993395   -0.000452712    0.000019798
     65        1           0.000973286    0.000511028    0.000150553
     66        1           0.000551887    0.001699876   -0.000435983
 -------------------------------------------------------------------
 Cartesian Forces:  Max     0.120287911 RMS     0.018592027

 GradGradGradGradGradGradGradGradGradGradGradGradGradGradGradGradGradGrad
 Berny optimization.
 FormGI is forming the generalized inverse of G from B-inverse, IUseBI=4.
 Internal  Forces:  Max     0.050162932 RMS     0.009362677
 Search for a local minimum.
 Step number   1 out of a maximum of  366
 All quantities printed in internal units (Hartrees-Bohrs-Radians)
 Mixed Optimization -- RFO/linear search
 Second derivative matrix not updated -- first step.
 ITU=  0
     Eigenvalues ---    0.00230   0.00230   0.00374   0.00719   0.00722
     Eigenvalues ---    0.00725   0.00737   0.01023   0.01207   0.01213
     Eigenvalues ---    0.01219   0.01506   0.01565   0.01659   0.01723
     Eigenvalues ---    0.01736   0.01869   0.01878   0.01900   0.01950
     Eigenvalues ---    0.01974   0.01977   0.02005   0.02011   0.02030
[...]
 000192,-0.00000152,-0.00000072,0.00000348,-0.00000960,-0.00002292,0.00
 000258,0.00000390,0.00000065,0.00004701,-0.00011736,-0.00009719,0.0000
 4823,0.00003732,0.00002932,0.00000001,-0.00000666,-0.00000313,0.000401
 21,-0.00150995,-0.00248089,-0.00676715,-0.00423339,0.00521691,-0.00008
 687,0.00365994,0.00336565,-0.09142597,-0.16618928,0.11778120,0.0004580
 4,0.00034148,-0.00048643,-0.00245145,-0.00225149,0.00572105,-0.0029876
 5,0.00418804,0.00153966,0.00000005,-0.00000045,-0.00000007,0.00000015,
 -0.00000031,0.00000022,0.00000005,0.00000001,0.00000027,0.00000012,-0.
 00000007,-0.00000010,-0.00000007,-0.00000014,0.00000007,-0.00000021,0.
 00000024,0.00000013,0.00000022,0.00000006,0.00000037,-0.00000008,-0.00
 000007,0.00000020,0.00000002,-0.00000007,-0.00000002,-0.00000001,-0.00
 000003,0.00000012,0.00000016,-0.00000020,0.00000016,0.00000028,-0.0000
 0005,-0.00000014,-0.00000035,-0.00000008,-0.00000045,0.00000006,0.0000
 0022,-0.00000003,0.00000031,0.00000027,-0.00000009,-0.00000059,0.00000
 031,0.00000150,0.00000578,-0.00000081,0.00000089,0.00000161,-0.0000005
 6,0.00000071,-0.00000004,0.00000013,0.,-0.00000789,0.00000263,0.000005
 20,-0.00032211,0.00024666,-0.00005349,0.00031442,-0.00000829,0.0001182
 3,-0.00034927,-0.00001081,0.00037916,0.10096887,0.16891840,-0.00000425
 ,-0.00000265,-0.00000788,0.00000315,-0.00000002,0.00000078,0.00048212,
 -0.00029695,-0.00026796,0.00000035,0.00000042,-0.00000001,-0.00000187,
 -0.00000039,-0.00000095,-0.00000032,0.00000028,0.00000009,0.00039234,-
 0.00012778,0.00019552,-0.00000013,0.00000011,0.00000043,0.00002443,0.0
 0000870,0.00000644,0.00000201,0.00000272,0.00000194,0.00000118,0.00001
 082,0.00000429,-0.00000090,-0.00000040,0.00000098,0.00000099,-0.000000
 85,-0.00000043,-0.00000018,0.00000035,0.00000053,0.00000092,-0.0000001
 2,0.,0.00000213,0.00000023,0.00000081,-0.00000096,-0.00000020,0.000000
 85,0.00000663,0.00000200,0.00000028,-0.00000039,0.00000308,-0.00000018
 ,-0.00000047,-0.00000045,-0.00000132,-0.00000015,-0.00000021,-0.000000
 33,-0.00000036,-0.00000216,-0.00000214,0.00000001,-0.00000195,0.000001
 22,-0.00001197,-0.00001715,-0.00000847,-0.00000075,0.00000011,-0.00000
 051,-0.00000169,-0.00000038,-0.00000151,-0.00001267,-0.00000181,0.0000
 0971,-0.00000301,-0.00000481,-0.00000217,0.00000066,-0.00000402,-0.000
 01582,0.00000045,0.00000209,-0.00000382,-0.00016493,-0.00006777,-0.000
 08782,0.00004731,0.00001045,0.00001520,-0.00000047,0.00001003,0.000004
 66,0.00226740,-0.00066013,-0.00049670,0.01250098,0.01629479,-0.0111041
 9,-0.00406258,0.00342597,-0.00133806,0.07189492,0.11739608,-0.14881049
 ,-0.00109416,-0.00045485,-0.00036435,-0.00486640,-0.00585937,0.0077255
 1,-0.00295774,0.00170270,0.00248483,0.00000011,0.00000016,-0.00000004,
 -0.00000036,0.00000039,-0.00000038,-0.00000014,-0.00000007,-0.00000019
 ,-0.00000011,0.00000014,0.00000007,-0.00000016,0.00000003,-0.00000022,
 0.00000011,-0.00000030,-0.00000014,-0.00000028,-0.00000009,-0.00000021
 ,-0.00000028,0.00000020,0.00000013,0.00000003,0.,0.,0.,0.00000010,-0.0
 0000007,0.00000007,0.00000017,-0.00000018,-0.00000004,0.,0.,0.00000045
 ,0.00000001,0.00000045,-0.00000002,-0.00000028,0.00000016,-0.00000012,
 -0.00000021,0.00000018,0.00000063,0.00000025,0.00000010,0.00000393,-0.
 00000076,0.00000092,0.00000090,0.00000088,0.00000050,-0.00000002,0.000
 00013,0.00000010,-0.00001472,-0.00000166,0.00000509,-0.00015109,-0.000
 23776,0.00018270,-0.00079918,-0.00075930,-0.00000838,0.00063054,0.0008
 8128,-0.00040316,-0.07516626,-0.12924021,0.15270988,0.00000235,0.00001
 684,0.00000738,0.00000159,-0.00000002,-0.00000054,0.00020612,-0.000712
 81,0.00114420,0.00000019,0.00000004,-0.00000007,-0.00000092,-0.0000002
 0,0.00000008,-0.00000013,0.00000024,0.00000029,-0.00042483,0.00004305,
 -0.00000847,0.00000026,0.00000053,0.00000057,-0.00004532,-0.00001772,-
 0.00001053,-0.00000459,-0.00000707,-0.00000288,-0.00000227,-0.00002062
 ,-0.00000998,-0.00000103,-0.00000036,0.00000060,0.00000082,-0.00000070
 ,-0.00000033,-0.00000088,-0.00000037,-0.00000012,-0.00000048,0.0000014
 0,0.00000107,-0.00000276,-0.00000267,-0.00000130,-0.00000199,-0.000000
 38,0.00000041,-0.00000867,0.00000093,-0.00000014,0.00000123,-0.0000024
 8,-0.00000153,0.00000055,0.00000065,-0.00000053,0.00000012,-0.00000062
 ,-0.00000056,-0.00000224,0.00000556,0.00000098,-0.00000084,0.00000334,
 0.00000385,0.00002112,0.00003480,0.00001848,-0.00000049,0.00000011,-0.
 00000033,0.00000233,-0.00000138,-0.00000157,0.00002002,-0.00000510,0.0
 0000804,0.00000664,0.00000831,0.00000418,-0.00000518,0.00002184,-0.000
 00208,0.00000034,0.00000987,-0.00000119,0.00022902,0.00009094,0.000040
 05,-0.00006206,-0.00004153,0.00000234,-0.00004300,-0.00003775,-0.00001
 461,0.00009566,0.00047125,-0.00121110,-0.00358128,-0.00401054,-0.00141
 717,-0.00064542,-0.00022427,0.00073778,-0.00828564,0.01144212,-0.02417
 543,0.00020332,-0.00370384,0.00015150,-0.11481575,0.04043115,-0.109152
 19,0.01019174,-0.00670143,0.01370495,0.,0.00000018,0.00000004,-0.00000
 019,0.00000030,-0.00000016,-0.00000015,0.,-0.00000013,-0.00000008,0.00
 000007,0.00000011,0.00000017,0.00000016,-0.00000004,0.00000011,-0.0000
 0011,-0.00000009,-0.00000009,0.00000003,-0.00000025,0.00000030,-0.0000
 0028,-0.00000031,-0.00000003,0.00000019,0.00000006,0.00000011,0.,-0.00
 000014,-0.00000031,0.00000041,-0.00000008,-0.00000004,-0.00000005,-0.0
 0000005,0.00000037,0.00000002,0.00000027,-0.00000004,-0.00000014,0.000
 00013,-0.00000052,-0.00000041,-0.00000004,0.00000011,-0.00000071,-0.00
 000156,-0.00000749,0.00000061,-0.00000069,-0.00000243,0.00000122,-0.00
 000015,0.00000007,-0.00000116,-0.00000042,0.00001652,0.00002035,0.0000
 1425,-0.00041911,-0.00008261,-0.00010528,0.00002868,0.00000098,0.00006
 283,-0.00002348,0.00024253,0.00004530,0.00049233,0.00129760,0.00134345
 ,0.11678023,-0.00000067,0.00000205,0.00000214,-0.00000066,-0.00000027,
 0.00000047,0.00016219,-0.00097353,0.00148557,-0.00000034,-0.00000006,0
 .00000011,0.00000040,0.00000005,-0.00000002,-0.00000017,0.00000022,-0.
 00000054,0.00001408,-0.00003045,0.00002390,-0.00000007,0.00000003,-0.0
 0000025,-0.00000649,-0.00000323,-0.00000090,-0.00000070,-0.00000110,-0
 .00000092,0.00000003,-0.00000340,-0.00000065,0.00000071,0.00000034,-0.
 00000044,-0.00000047,0.00000045,0.00000023,0.00000032,-0.00000016,-0.0
 0000005,-0.00000040,-0.00000018,-0.00000025,-0.00000081,0.00000008,-0.
 00000033,0.00000055,0.00000015,-0.00000052,-0.00000219,-0.00000092,-0.
 00000054,0.00000007,-0.00000065,-0.00000036,0.00000019,-0.00000002,0.0
 0000068,0.00000003,0.00000022,0.00000038,0.00000070,0.00000068,0.00000
 131,0.00000057,0.00000099,-0.00000035,0.00000265,0.00000484,0.00000295
 ,0.00000023,-0.00000017,0.00000020,0.00000029,0.00000018,0.00000046,0.
 00000182,0.00000893,-0.00000654,0.00000058,0.00000151,0.00000013,-0.00
 000404,-0.00000503,0.00000610,0.00000417,-0.00000199,0.00000496,-0.000
 01722,-0.00001885,0.00004490,0.00000126,-0.00000344,-0.00000897,-0.000
 00589,-0.00000184,0.00000084,-0.00009428,0.00029505,-0.00042975,-0.003
 78657,0.00378540,0.00179492,-0.00019287,-0.00107487,-0.00045378,-0.005
 18729,0.00715358,-0.00811661,-0.00413114,0.00290824,0.00355608,0.04032
 964,-0.08289120,0.09049171,0.00998743,-0.00364823,0.01699046,0.,-0.000
 00014,0.00000003,0.00000001,-0.00000022,0.00000001,0.00000017,-0.00000
 004,0.00000009,0.00000003,-0.00000005,-0.00000009,-0.00000008,0.000000
 02,0.,-0.00000001,0.00000010,0.00000002,0.00000013,-0.00000007,0.00000
 009,0.00000015,0.00000004,0.00000012,0.00000007,-0.00000007,-0.0000000
 1,0.00000011,0.,0.00000009,-0.00000003,-0.00000013,0.00000003,0.000000
 08,0.,0.00000004,-0.00000029,-0.00000003,-0.00000018,0.00000003,0.0000
 0014,-0.00000004,-0.00000007,0.00000003,-0.00000008,-0.00000039,0.0000
 0007,-0.00000025,-0.00000038,0.00000031,-0.00000017,0.00000005,-0.0000
 0020,0.00000031,-0.00000003,-0.00000037,-0.00000013,0.00000478,0.00000
 348,-0.00000278,-0.00002985,-0.00004648,-0.00006388,0.00000828,-0.0000
 2943,0.00000465,0.00022595,-0.00030426,-0.00023362,0.00168025,-0.00200
 448,-0.00179383,-0.04038124,0.07871871,0.00000054,0.00000815,0.0000066
 4,0.00000507,0.00000210,0.00000190,-0.00009201,0.00084446,-0.00125301,
 0.00000026,0.00000006,-0.00000032,-0.00000225,-0.00000090,-0.00000055,
 -0.00000101,-0.00000085,-0.00000134,-0.00030087,0.00003011,0.00002245,
 0.00000042,0.00000079,0.00000108,-0.00003182,-0.00001369,-0.00000638,-
 0.00000267,-0.00000501,-0.00000157,-0.00000171,-0.00001435,-0.00000692
 ,-0.00000159,-0.00000119,0.00000130,0.00000114,-0.00000152,-0.00000117
 ,-0.00000107,-0.00000016,0.00000043,0.00000074,0.00000154,0.00000124,-
 0.00000099,-0.00000288,-0.00000093,-0.00000291,-0.00000001,0.00000127,
 -0.00000508,0.00000227,0.00000083,0.00000122,-0.00000057,-0.00000241,-
 0.00000015,0.00000032,-0.00000162,0.00000009,-0.00000102,-0.00000133,-
 0.00000282,0.00000447,-0.00000030,-0.00000060,0.00000174,0.00000633,0.
 00001471,0.00002474,0.00001177,-0.00000080,-0.00000022,-0.00000095,0.0
 0000178,-0.00000215,-0.00000354,0.00001632,0.00000721,-0.00000403,0.00
 000466,0.00000594,0.00000341,-0.00000524,0.00000293,0.00001118,0.00000
 321,-0.00000210,0.00000573,0.00013274,0.00003247,0.00006845,-0.0000414
 5,-0.00001172,-0.00001981,-0.00002933,-0.00001858,-0.00001936,0.000475
 14,0.00017726,-0.00022295,-0.00222359,0.00159988,0.00312527,0.00061587
 ,-0.00054302,-0.00012032,-0.00110771,0.00314429,-0.00130167,0.00079640
 ,0.00388798,0.00266582,-0.10893134,0.09052331,-0.23745677,-0.00944513,
 0.00562758,-0.01057572,0.00000006,0.00000042,0.00000030,-0.00000063,0.
 00000059,-0.00000042,-0.00000023,0.00000026,-0.00000018,-0.00000047,0.
 00000020,0.00000001,-0.00000007,0.00000026,-0.00000032,0.00000021,-0.0
 0000036,-0.00000021,-0.00000029,-0.00000015,-0.00000053,0.00000004,-0.
 00000022,0.00000005,-0.00000016,0.00000032,0.00000013,-0.00000004,-0.0
 0000007,-0.00000021,-0.00000043,0.00000055,-0.00000035,-0.00000028,0.0
 0000003,0.00000006,0.00000039,0.00000008,0.00000019,0.00000007,-0.0000
 0017,0.00000031,-0.00000067,-0.00000048,0.00000026,0.00000049,-0.00000
 104,-0.00000261,-0.00000515,-0.00000030,0.00000027,-0.00000205,0.00000
 078,-0.00000028,0.,-0.00000061,0.00000010,0.00000594,0.00001148,0.0000
 0406,-0.00007580,-0.00001541,-0.00003650,-0.00004275,-0.00001113,0.000
 00651,0.00006302,-0.00023083,-0.00022818,0.00085847,-0.00202915,-0.000
 72928,0.11834333,-0.10085980,0.24662865,-0.00000131,0.00000813,0.00000
 302,0.00000053,-0.00000060,-0.00000089,0.00069676,0.00139855,0.0012536
 3,0.00000018,0.00000039,0.00000008,-0.00000009,-0.00000010,0.00000032,
 0.,0.00000075,0.00000018,-0.00017424,0.00002751,-0.00000268,0.00000045
 ,0.00000072,0.00000052,-0.00001571,-0.00000717,-0.00000357,-0.00000245
 ,-0.00000302,-0.00000107,-0.00000076,-0.00000682,-0.00000354,-0.000000
 63,-0.00000037,0.00000052,0.00000043,-0.00000064,-0.00000026,-0.000000
 73,-0.00000040,0.00000027,-0.00000020,0.00000075,0.00000033,-0.0000005
 6,-0.00000184,-0.00000054,-0.00000168,-0.00000025,0.00000042,-0.000002
 47,0.00000130,0.00000023,0.00000029,-0.00000023,-0.00000114,0.00000049
 ,0.00000016,-0.00000043,0.00000009,-0.00000037,-0.00000046,-0.00000087
 ,0.00000213,0.00000061,-0.00000016,0.00000171,0.00000286,0.00000729,0.
 00001359,0.00000640,-0.00000031,0.00000009,-0.00000022,0.00000026,-0.0
 0000057,-0.00000170,0.00000743,0.00000043,0.00000078,0.00000310,0.0000
 0225,0.00000145,0.00000006,0.00000512,0.00000252,0.00000037,0.00000293
 ,-0.00000049,0.00007997,0.00002804,0.00001975,-0.00002258,-0.00001378,
 -0.00000195,-0.00001547,-0.00001234,-0.00000762,-0.00006593,0.00009081
 ,0.00008663,0.00039571,0.00053172,0.00026729,0.00098639,0.00009641,-0.
 00300212,0.00176920,-0.00310959,0.00061187,-0.01005748,-0.00713355,-0.
 00015177,-0.00768189,-0.00228942,-0.00405672,-0.29977381,-0.08611285,-
 0.06108609,0.00000007,0.00000017,0.00000015,-0.00000028,0.00000017,-0.
 00000014,0.,0.00000003,-0.00000009,-0.00000006,0.00000006,-0.00000005,
 -0.00000006,0.00000014,-0.00000021,0.00000019,-0.00000021,-0.00000019,
 -0.00000018,-0.00000018,-0.00000029,0.00000010,-0.00000015,-0.00000001
 ,0.00000004,0.00000006,0.00000003,0.00000018,0.00000006,-0.00000005,-0
 .00000023,0.00000024,-0.00000010,-0.00000005,-0.00000008,-0.00000009,0
 .00000021,-0.00000006,0.00000020,-0.00000005,-0.00000001,0.00000022,-0
 .00000047,-0.00000051,-0.00000003,0.00000022,-0.00000030,-0.00000072,-
 0.00000248,0.00000004,-0.00000020,-0.00000066,0.00000054,0.00000019,0.
 00000019,-0.00000079,-0.00000034,0.00000474,0.00000444,0.00000355,0.00
 000152,-0.00001088,0.00001500,-0.00002494,0.00001147,-0.00000049,-0.00
 038237,-0.00027094,-0.00000014,-0.00042645,-0.00011623,-0.00028908,0.0
 0008733,0.00141665,0.00101883,0.31461381,0.00000080,0.00000024,-0.0000
 0210,0.00000088,0.,0.00000045,0.00123383,-0.00120294,-0.00305941,-0.00
 000006,0.00000025,0.,-0.00000064,-0.00000008,-0.00000055,-0.00000011,-
 0.00000010,0.00000006,0.00003309,-0.00001109,0.00000486,-0.00000019,0.
 00000030,0.00000003,-0.00000448,-0.00000188,-0.00000269,-0.00000101,-0
 .00000127,-0.00000032,0.00000010,-0.00000220,-0.00000161,0.00000013,-0
 .00000003,0.00000019,0.,-0.00000014,-0.00000011,-0.00000013,-0.0000001
 4,0.00000031,0.00000002,0.00000022,-0.00000005,-0.00000037,-0.00000069
 ,-0.00000004,-0.00000055,-0.00000019,0.00000007,-0.00000035,0.00000057
 ,-0.00000007,0.00000013,-0.00000004,0.00000011,0.00000026,0.00000004,-
 0.00000028,-0.00000005,-0.00000007,0.00000004,-0.00000053,0.00000077,-
 0.00000021,-0.00000012,0.00000062,0.00000062,0.00000227,0.00000426,0.0
 0000307,-0.00000031,0.00000009,-0.00000004,-0.00000003,-0.00000009,-0.
 00000034,0.00000108,-0.00000676,0.00001000,0.00000114,0.00000064,0.000
 00011,0.00000114,0.00000660,-0.00001248,-0.00000093,0.00000527,-0.0000
 0631,0.00003480,0.00000095,-0.00001857,-0.00000174,-0.00000656,0.00001
 706,-0.00000577,-0.00000840,0.00000591,0.00030901,-0.00023430,-0.00032
 058,0.00019647,-0.00113167,0.00015229,-0.00011587,0.00230183,0.0039384
 4,-0.00284023,0.00195118,0.00539424,0.00968676,0.00687152,0.00366704,-
 0.01845001,-0.00204403,-0.00564332,-0.08684967,-0.07048015,-0.00894860
 ,-0.00000003,-0.00000002,0.,-0.00000011,0.00000007,-0.00000010,-0.0000
 0003,-0.00000009,0.,0.00000001,0.00000004,0.,-0.00000007,0.00000002,-0
 .00000007,0.00000003,-0.00000007,-0.00000005,0.00000002,-0.00000007,-0
 .00000003,0.,0.,0.,0.00000006,-0.00000001,0.00000003,0.00000010,0.0000
 0004,-0.00000002,-0.00000005,0.00000015,0.,0.00000015,-0.00000002,-0.0
 0000002,0.00000007,0.,0.00000007,0.00000003,-0.00000005,0.00000007,-0.
 00000017,-0.00000024,-0.00000005,0.00000030,0.00000057,-0.00000004,-0.
 00000015,-0.00000028,0.00000020,-0.00000004,0.00000020,0.00000039,0.00
 000008,-0.00000048,-0.00000007,0.00000126,0.00000254,0.00000200,-0.000
 07836,0.00006418,-0.00008729,0.00005286,-0.00000943,0.00006320,0.00047
 984,0.00028419,0.00015639,-0.00094217,-0.00011861,-0.00021580,0.001810
 94,-0.00184032,-0.00217489,0.09544668,0.06560513,-0.00000003,-0.000001
 88,-0.00000031,0.00000094,0.00000064,0.00000109,0.00151146,-0.00297259
 ,0.00119688,0.00000006,-0.00000006,-0.00000011,-0.00000046,-0.00000003
 ,-0.00000041,-0.00000021,-0.00000064,-0.00000032,0.00006022,-0.0000294
 9,0.00002677,-0.00000019,0.00000004,0.,-0.00000053,-0.00000015,-0.0000
 0130,0.00000028,-0.00000004,0.00000013,-0.00000009,-0.00000051,-0.0000
 0040,0.00000007,-0.00000027,0.00000021,0.00000003,-0.00000018,-0.00000
 036,-0.00000003,0.00000005,0.00000018,0.00000044,0.00000019,0.00000007
 ,0.00000008,-0.00000027,0.00000035,-0.00000038,0.00000004,0.00000024,0
 .00000006,0.00000034,0.00000046,0.00000032,0.00000020,-0.00000015,-0.0
 0000028,-0.00000006,-0.00000045,-0.00000002,-0.00000017,-0.00000012,-0
 .00000051,0.00000003,-0.00000051,-0.00000014,-0.00000032,0.00000040,0.
 00000059,0.00000060,0.00000012,-0.00000019,0.00000005,-0.00000016,0.00
 000021,-0.00000016,-0.00000056,0.00000059,-0.00000286,0.00000406,-0.00
 000005,0.00000034,0.00000037,0.00000084,-0.00000031,-0.00000403,-0.000
 00093,0.00000059,0.00000038,0.00000866,-0.00002017,-0.00000272,0.00000
 537,0.00000663,0.00000096,-0.00000102,0.00000266,-0.00000412,0.0002151
 4,-0.00023400,-0.00010043,0.00047021,0.00026576,-0.00115472,-0.0025888
 4,0.00412474,-0.00240160,0.00038848,0.00523285,0.00021241,-0.02385563,
 -0.00776257,-0.00065684,0.01828784,0.00513975,0.00826544,-0.06000209,-
 0.00835583,-0.06369322,-0.00000010,-0.00000003,0.,-0.00000003,0.000000
 10,-0.00000001,-0.00000008,0.00000010,0.00000002,-0.00000007,0.0000000
 3,0.00000003,0.00000003,-0.00000004,0.00000001,-0.00000006,0.,0.000000
 04,-0.00000001,0.00000007,0.00000002,-0.00000007,-0.00000005,-0.000000
 06,-0.00000007,0.00000008,0.00000004,-0.00000008,-0.00000003,-0.000000
 06,0.00000005,0.00000012,-0.00000003,0.00000007,0.,-0.00000002,0.00000
 002,0.00000006,-0.00000006,0.00000002,-0.00000002,0.00000005,0.,0.0000
 0003,0.00000009,0.00000027,0.00000052,0.00000004,0.00000040,-0.0000001
 6,0.00000043,-0.00000012,0.00000027,-0.00000024,-0.00000005,0.00000013
 ,0.00000017,-0.00000002,0.00000028,0.00000237,0.00002489,0.00005661,-0
 .00000970,-0.00003735,-0.00005952,0.00004631,-0.00111707,-0.00038632,-
 0.00011306,0.00082600,0.00035332,0.00030299,0.00048553,-0.00243737,-0.
 00057392,0.06531765,0.00707884,0.05865685\\0.00000029,0.00000034,0.000
 00018,0.00000351,0.00000091,-0.00000234,-0.00000005,-0.00000133,0.0000
 0007,-0.00000305,-0.00000234,-0.00000226,0.00000028,-0.00000097,-0.000
 00121,0.00000030,-0.00000042,0.00000052,0.00000164,0.00000125,-0.00000
 319,0.00000058,0.00000277,-0.00000245,0.00000097,-0.00000029,0.0000012
 9,-0.00000024,0.00000084,0.00000098,-0.00000187,-0.00000043,-0.0000003
 4,0.00000275,0.00000018,-0.00000155,-0.00000235,0.00000149,0.00000057,
 -0.00000234,-0.00000024,0.00000179,0.00000209,0.00000008,0.00000298,0.
 00000010,0.00000050,0.00000085,0.00000471,0.00000413,0.00000066,0.0000
 0020,0.00000015,0.00000058,-0.00000130,0.00000053,-0.00000048,-0.00000
 015,0.00000062,-0.00000438,-0.00000144,0.00000088,0.00000249,0.0000004
 4,0.,-0.00000009,-0.00000081,0.00000006,-0.00000009,-0.00000057,-0.000
 00023,0.00000122,-0.00000063,-0.00000291,0.00000113,-0.00000133,0.0000
 0112,0.00000061,-0.00000145,0.00000111,-0.00000091,-0.00000016,-0.0000
 0075,0.00000101,-0.00000034,0.00000018,-0.00000012,0.00000020,-0.00000
 049,0.00000069,-0.00000135,-0.00000058,0.00000209,-0.00000005,-0.00000
 205,-0.00000005,-0.00000018,-0.00000046,-0.00000013,-0.00000097,-0.000
 00128,0.00000220,-0.00000026,-0.00000225,0.00000273,0.00000130,0.,-0.0
 0000014,-0.00000141,-0.00000057,-0.00000139,-0.00000125,-0.00000073,-0
 .00000145,0.00000092,-0.00000009,0.,-0.00000030,-0.00000155,0.00000131
 ,0.00000035,0.00000024,-0.00000020,0.00000015,0.00000073,-0.00000060,0
 .00000042,-0.00000073,-0.00000147,0.00000074,0.00000050,-0.00000080,0.
 00000077,0.00000165,-0.00000114,0.00000070,0.00000050,-0.00000005,-0.0
 0000005,0.00000069,-0.00000054,0.00000021,0.00000062,0.00000071,0.0000
 0059,0.00000080,0.00000128,0.00000033,0.00000140,-0.00000089,-0.000000
 03,0.00000064,0.00000031,0.00000070,0.00000052,-0.00000135,0.00000051,
 -0.00000071,-0.00000051,0.00000141,0.00000085,-0.00000034,-0.00000041,
 0.00000041,0.00000077,-0.00000028,0.00000019,0.00000031,0.00000033,0.0
 0000009,-0.00000006,-0.00000031,-0.00000015,0.00000052,-0.00000066,-0.
 00000003,0.00000051,-0.00000077,-0.00000048,0.00000025,0.00000048,-0.0
 0000085,-0.00000002,-0.00000113,-0.00000090,0.00000002,-0.00000012,-0.
 00000095,-0.00000029,-0.00000021,-0.00000028,0.00000025,-0.00000022,-0
 .00000089,0.00000013,0.00000007,-0.00000108,-0.00000020\\\@
 The archive entry for this job was punched.


 FLOATING POINT NUMBERS ARE LIKE SANDPILES:
 EVERY TIME THAT YOU MOVE ONE, YOU LOSE A LITTLE SAND 
 AND YOU PICK UP A LITTLE DIRT.
 Job cpu time:       6 days  5 hours  8 minutes 25.1 seconds.
 Elapsed time:       0 days  1 hours 23 minutes 23.5 seconds.
 File lengths (MBytes):  RWF=   6602 Int=      0 D2E=      0 Chk=    118 Scr=      1
 Normal termination of Gaussian 16 at Sat Mar  7 21:34:05 2026.
