SLURM_NODELIST orfoz244
NUMBER OF TASKS 1
NUMBER OF CORES=112
 Entering Gaussian System, Link 0=/arf/sw/apps/gaussian/avx/g16/g16
 Initial command:
 /arf/sw/apps/gaussian/avx/g16/l1.exe "/tmp/5347248/Gau-74093.inp" -scrdir="/tmp/5347248/"
 Entering Link 1 = /arf/sw/apps/gaussian/avx/g16/l1.exe PID=     74097.
  
 Copyright (c) 1988-2019, Gaussian, Inc.  All Rights Reserved.
  
 This is part of the Gaussian(R) 16 program.  It is based on
 the Gaussian(R) 09 system (copyright 2009, Gaussian, Inc.),
 the Gaussian(R) 03 system (copyright 2003, Gaussian, Inc.),
 the Gaussian(R) 98 system (copyright 1998, Gaussian, Inc.),
 the Gaussian(R) 94 system (copyright 1995, Gaussian, Inc.),
 the Gaussian 92(TM) system (copyright 1992, Gaussian, Inc.),
 the Gaussian 90(TM) system (copyright 1990, Gaussian, Inc.),
 the Gaussian 88(TM) system (copyright 1988, Gaussian, Inc.),
 the Gaussian 86(TM) system (copyright 1986, Carnegie Mellon
 University), and the Gaussian 82(TM) system (copyright 1983,
 Carnegie Mellon University). Gaussian is a federally registered
 trademark of Gaussian, Inc.
  
 This software contains proprietary and confidential information,
 including trade secrets, belonging to Gaussian, Inc.
  
 This software is provided under written license and may be
 used, copied, transmitted, or stored only in accord with that
 written license.
  
 The following legend is applicable only to US Government
 contracts under FAR:
  
                    RESTRICTED RIGHTS LEGEND
  
 Use, reproduction and disclosure by the US Government is
 subject to restrictions as set forth in subparagraphs (a)
 and (c) of the Commercial Computer Software - Restricted
 Rights clause in FAR 52.227-19.
  
 Gaussian, Inc.
 340 Quinnipiac St., Bldg. 40, Wallingford CT 06492
  
  
 ---------------------------------------------------------------
 Warning -- This program may not be used in any manner that
 competes with the business of Gaussian, Inc. or will provide
 assistance to any competitor of Gaussian, Inc.  The licensee
 of this program is prohibited from giving any competitor of
 Gaussian, Inc. access to this program.  By using this program,
 the user acknowledges that Gaussian, Inc. is engaged in the
 business of creating and licensing software in the field of
 computational chemistry and represents and warrants to the
 licensee that it is not a competitor of Gaussian, Inc. and that
 it will not use this program in any manner prohibited above.
 ---------------------------------------------------------------
  

 Cite this work as:
 Gaussian 16, Revision C.01,
 M. J. Frisch, G. W. Trucks, H. B. Schlegel, G. E. Scuseria, 
 M. A. Robb, J. R. Cheeseman, G. Scalmani, V. Barone, 
 G. A. Petersson, H. Nakatsuji, X. Li, M. Caricato, A. V. Marenich, 
 J. Bloino, B. G. Janesko, R. Gomperts, B. Mennucci, H. P. Hratchian, 
 J. V. Ortiz, A. F. Izmaylov, J. L. Sonnenberg, D. Williams-Young, 
 F. Ding, F. Lipparini, F. Egidi, J. Goings, B. Peng, A. Petrone, 
 T. Henderson, D. Ranasinghe, V. G. Zakrzewski, J. Gao, N. Rega, 
 G. Zheng, W. Liang, M. Hada, M. Ehara, K. Toyota, R. Fukuda, 
 J. Hasegawa, M. Ishida, T. Nakajima, Y. Honda, O. Kitao, H. Nakai, 
 T. Vreven, K. Throssell, J. A. Montgomery, Jr., J. E. Peralta, 
 F. Ogliaro, M. J. Bearpark, J. J. Heyd, E. N. Brothers, K. N. Kudin, 
 V. N. Staroverov, T. A. Keith, R. Kobayashi, J. Normand, 
 K. Raghavachari, A. P. Rendell, J. C. Burant, S. S. Iyengar, 
 J. Tomasi, M. Cossi, J. M. Millam, M. Klene, C. Adamo, R. Cammi, 
 J. W. Ochterski, R. L. Martin, K. Morokuma, O. Farkas, 
 J. B. Foresman, and D. J. Fox, Gaussian, Inc., Wallingford CT, 2019.
 
 ******************************************
 Gaussian 16:  ES64L-G16RevC.01  3-Jul-2019
                 2-Mar-2026 
 ******************************************
 %nprocshared=112
 Will use up to  112 processors via shared memory.
 %mem=10GB
 %chk=Nutlin3.chk
 ----------------------------------------------------------------------
 # opt freq b3lyp/6-311++g(d,p) scrf=(pcm,solvent=water) geom=connectiv
 ity
 ----------------------------------------------------------------------
 1/18=20,19=15,26=3,38=1,57=2/1,3;
 2/9=110,12=2,17=6,18=5,40=1/2;
 3/5=4,6=6,7=1111,11=2,25=1,30=1,70=2201,71=1,72=1,74=-5/1,2,3;
 4//1;
 5/5=2,38=5,53=1/2;
 6/7=2,8=2,9=2,10=2,28=1/1;
 7//1,2,3,16;
 1/18=20,19=15,26=3/3(2);
 2/9=110/2;
 99//99;
 2/9=110/2;
 3/5=4,6=6,7=1111,11=2,25=1,30=1,70=2205,71=1,72=1,74=-5/1,2,3;
 4/5=5,16=3,69=1/1;
 5/5=2,38=5,53=1/2;
 7//1,2,3,16;
 1/18=20,19=15,26=3/3(-5);
 2/9=110/2;
 6/7=2,8=2,9=2,10=2,19=2,28=1/1;
 99/9=1/99;
 --------
 11433190
 --------
 Symbolic Z-matrix:
 Charge =  0 Multiplicity = 1
 Cl                   -4.9321    1.4349    4.1409 
 Cl                   -7.1212   -2.4945   -1.7455 
 O                     1.6383    0.866     1.7543 
 O                     3.1008   -0.2654   -0.972 
 O                     1.8242    4.3558   -2.6254 
 O                     5.0699   -3.5802    1.8272 
 N                     0.2328    0.3067    0.0175 
 N                    -0.4305   -1.7126   -0.8593 
 N                     0.8678    2.5731    0.3886 
 N                     2.4997    4.6402   -0.4596 
 C                    -1.122     0.567    -0.4566 
 C                    -1.3951   -0.6766   -1.3326 
 C                     0.4766   -1.0584   -0.1967 
 C                    -2.084     0.786     0.704 
 C                    -2.8322   -1.1327   -1.4361 
 C                     0.985     1.2286    0.7696 
 C                     1.6855   -1.7066    0.3223 
 C                     1.1944    3.6264    1.3398 
 C                     0.6892    3.0276   -0.9878 
 C                    -1.8108    0.2252    1.9516 
 C                    -3.2378    1.5477    0.5192 
 C                     2.518     4.2343    0.9322 
 C                    -3.6521   -0.6307   -2.4468 
 C                    -3.3385   -2.056    -0.5213 
 C                     2.9528   -1.2878   -0.083 
 C                     1.7401    4.035    -1.4377 
 C                     1.5555   -2.7547    1.2334 
 C                    -2.6915    0.4259    3.0144 
 C                    -4.1186    1.7483    1.5821 
 C                    -4.9784   -1.0518   -2.5425 
 C                    -4.6648   -2.4771   -0.6171 
 C                    -3.8454    1.1875    2.8297 
 C                     4.0902   -1.9173    0.4228 
 C                     2.6929   -3.3842    1.7392 
 C                    -5.4847   -1.975    -1.6276 
 C                     3.9602   -2.9655    1.3338 
 C                     3.7742   -0.5618   -2.1935 
 C                     5.0293    0.2917   -2.2933 
 C                     2.8281   -0.3169   -3.359 
 C                     6.3342   -3.1019    1.3705 
 H                    -1.1648    1.4553   -1.087 
 H                    -1.0581   -0.4471   -2.3555 
 H                     0.3883    4.3686    1.305 
 H                     1.2469    3.2307    2.359 
 H                    -0.2893    3.5138   -1.0595 
 H                     0.7518    2.1834   -1.6808 
 H                    -0.9411   -0.3965    2.1366 
 H                    -3.4609    1.9924   -0.4468 
 H                     2.7535    5.1137    1.539 
 H                     3.3331    3.5102    1.0405 
 H                    -3.2703    0.0916   -3.1633 
 H                    -2.7187   -2.4567    0.2762 
 H                     0.574    -3.0888    1.5604 
 H                     3.1802    5.3332   -0.7556 
 H                    -2.4692   -0.022     3.9796 
 H                    -5.0137    2.3441    1.4235 
 H                    -5.606    -0.6512   -3.3344 
 H                    -5.0462   -3.1958    0.1036 
 H                     5.053    -1.5472    0.0907 
 H                     2.5855   -4.1996    2.4492 
 H                     4.0735   -1.6179   -2.2376 
 H                     4.7777    1.3576   -2.2546 
 H                     5.5706    0.095    -3.2237 
 H                     5.7038    0.1003   -1.453 
 H                     2.4773    0.7211   -3.3653 
 H                     3.3104   -0.5305   -4.3176 
 H                     1.9373   -0.9479   -3.2676 
 H                     6.4545   -3.2473    0.2915 
 H                     6.5044   -2.0628    1.6721 
 H                     7.1042   -3.7063    1.8611 
 

 GradGradGradGradGradGradGradGradGradGradGradGradGradGradGradGradGradGrad
 Berny optimization.
 Initialization pass.
                           ----------------------------
                           !    Initial Parameters    !
                           ! (Angstroms and Degrees)  !
 --------------------------                            --------------------------
 ! Name  Definition              Value          Derivative Info.                !
 --------------------------------------------------------------------------------
 ! R1    R(1,32)                 1.7209         estimate D2E/DX2                !
 ! R2    R(2,35)                 1.721          estimate D2E/DX2                !
 ! R3    R(3,16)                 1.2361         estimate D2E/DX2                !
 ! R4    R(4,25)                 1.3629         estimate D2E/DX2                !
 ! R5    R(4,37)                 1.426          estimate D2E/DX2                !
 ! R6    R(5,26)                 1.2331         estimate D2E/DX2                !
 ! R7    R(6,36)                 1.3612         estimate D2E/DX2                !
 ! R8    R(6,40)                 1.4268         estimate D2E/DX2                !
 ! R9    R(7,11)                 1.4588         estimate D2E/DX2                !
 ! R10   R(7,13)                 1.4031         estimate D2E/DX2                !
 ! R11   R(7,16)                 1.4076         estimate D2E/DX2                !
 ! R12   R(8,12)                 1.4926         estimate D2E/DX2                !
 ! R13   R(8,13)                 1.2999         estimate D2E/DX2                !
 ! R14   R(9,16)                 1.4023         estimate D2E/DX2                !
 ! R15   R(9,18)                 1.4563         estimate D2E/DX2                !
 ! R16   R(9,19)                 1.4605         estimate D2E/DX2                !
 ! R17   R(10,22)                1.4499         estimate D2E/DX2                !
 ! R18   R(10,26)                1.3784         estimate D2E/DX2                !
 ! R19   R(10,54)                1.0154         estimate D2E/DX2                !
 ! R20   R(11,12)                1.5455         estimate D2E/DX2                !
 ! R21   R(11,14)                1.5233         estimate D2E/DX2                !
 ! R22   R(11,41)                1.0901         estimate D2E/DX2                !
 ! R23   R(12,15)                1.5113         estimate D2E/DX2                !
 ! R24   R(12,42)                1.1012         estimate D2E/DX2                !
 ! R25   R(13,17)                1.4666         estimate D2E/DX2                !
 ! R26   R(14,20)                1.3949         estimate D2E/DX2                !
 ! R27   R(14,21)                1.3948         estimate D2E/DX2                !
 ! R28   R(15,23)                1.3949         estimate D2E/DX2                !
 ! R29   R(15,24)                1.3949         estimate D2E/DX2                !
 ! R30   R(17,25)                1.3949         estimate D2E/DX2                !
 ! R31   R(17,27)                1.3948         estimate D2E/DX2                !
 ! R32   R(18,22)                1.5125         estimate D2E/DX2                !
 ! R33   R(18,43)                1.0963         estimate D2E/DX2                !
 ! R34   R(18,44)                1.0946         estimate D2E/DX2                !
 ! R35   R(19,26)                1.5237         estimate D2E/DX2                !
 ! R36   R(19,45)                1.095          estimate D2E/DX2                !
 ! R37   R(19,46)                1.094          estimate D2E/DX2                !
 ! R38   R(20,28)                1.3948         estimate D2E/DX2                !
 ! R39   R(20,47)                1.0849         estimate D2E/DX2                !
 ! R40   R(21,29)                1.3949         estimate D2E/DX2                !
 ! R41   R(21,48)                1.0866         estimate D2E/DX2                !
 ! R42   R(22,49)                1.0941         estimate D2E/DX2                !
 ! R43   R(22,50)                1.0956         estimate D2E/DX2                !
 ! R44   R(23,30)                1.3948         estimate D2E/DX2                !
 ! R45   R(23,51)                1.0867         estimate D2E/DX2                !
 ! R46   R(24,31)                1.3948         estimate D2E/DX2                !
 ! R47   R(24,52)                1.0866         estimate D2E/DX2                !
 ! R48   R(25,33)                1.3949         estimate D2E/DX2                !
 ! R49   R(27,34)                1.3949         estimate D2E/DX2                !
 ! R50   R(27,53)                1.0871         estimate D2E/DX2                !
 ! R51   R(28,32)                1.3949         estimate D2E/DX2                !
 ! R52   R(28,55)                1.087          estimate D2E/DX2                !
 ! R53   R(29,32)                1.3949         estimate D2E/DX2                !
 ! R54   R(29,56)                1.0869         estimate D2E/DX2                !
 ! R55   R(30,35)                1.3949         estimate D2E/DX2                !
 ! R56   R(30,57)                1.087          estimate D2E/DX2                !
 ! R57   R(31,35)                1.3948         estimate D2E/DX2                !
 ! R58   R(31,58)                1.0869         estimate D2E/DX2                !
 ! R59   R(33,36)                1.3948         estimate D2E/DX2                !
 ! R60   R(33,59)                1.0836         estimate D2E/DX2                !
 ! R61   R(34,36)                1.3949         estimate D2E/DX2                !
 ! R62   R(34,60)                1.0865         estimate D2E/DX2                !
 ! R63   R(37,38)                1.5211         estimate D2E/DX2                !
 ! R64   R(37,39)                1.521          estimate D2E/DX2                !
 ! R65   R(37,61)                1.0986         estimate D2E/DX2                !
 ! R66   R(38,62)                1.0959         estimate D2E/DX2                !
 ! R67   R(38,63)                1.0942         estimate D2E/DX2                !
 ! R68   R(38,64)                1.0944         estimate D2E/DX2                !
 ! R69   R(39,65)                1.0957         estimate D2E/DX2                !
 ! R70   R(39,66)                1.0941         estimate D2E/DX2                !
 ! R71   R(39,67)                1.0955         estimate D2E/DX2                !
 ! R72   R(40,68)                1.0954         estimate D2E/DX2                !
 ! R73   R(40,69)                1.0953         estimate D2E/DX2                !
 ! R74   R(40,70)                1.0949         estimate D2E/DX2                !
 ! A1    A(25,4,37)            117.0073         estimate D2E/DX2                !
 ! A2    A(36,6,40)            117.0645         estimate D2E/DX2                !
 ! A3    A(11,7,13)            106.5801         estimate D2E/DX2                !
 ! A4    A(11,7,16)            123.5786         estimate D2E/DX2                !
 ! A5    A(13,7,16)            128.7482         estimate D2E/DX2                !
 ! A6    A(12,8,13)            105.2653         estimate D2E/DX2                !
 ! A7    A(16,9,18)            119.8168         estimate D2E/DX2                !
 ! A8    A(16,9,19)            124.377          estimate D2E/DX2                !
 ! A9    A(18,9,19)            114.7021         estimate D2E/DX2                !
 ! A10   A(22,10,26)           124.4166         estimate D2E/DX2                !
 ! A11   A(22,10,54)           117.5457         estimate D2E/DX2                !
 ! A12   A(26,10,54)           117.5256         estimate D2E/DX2                !
 ! A13   A(7,11,12)            101.8146         estimate D2E/DX2                !
 ! A14   A(7,11,14)            111.3801         estimate D2E/DX2                !
 ! A15   A(7,11,41)            111.7043         estimate D2E/DX2                !
 ! A16   A(12,11,14)           115.8457         estimate D2E/DX2                !
 ! A17   A(12,11,41)           108.7225         estimate D2E/DX2                !
 ! A18   A(14,11,41)           107.377          estimate D2E/DX2                !
 ! A19   A(8,12,11)            105.3423         estimate D2E/DX2                !
 ! A20   A(8,12,15)            115.2635         estimate D2E/DX2                !
 ! A21   A(8,12,42)            103.9718         estimate D2E/DX2                !
 ! A22   A(11,12,15)           116.7243         estimate D2E/DX2                !
 ! A23   A(11,12,42)           107.7427         estimate D2E/DX2                !
 ! A24   A(15,12,42)           106.8758         estimate D2E/DX2                !
 ! A25   A(7,13,8)             116.4985         estimate D2E/DX2                !
 ! A26   A(7,13,17)            121.2776         estimate D2E/DX2                !
 ! A27   A(8,13,17)            122.2175         estimate D2E/DX2                !
 ! A28   A(11,14,20)           119.9983         estimate D2E/DX2                !
 ! A29   A(11,14,21)           119.9974         estimate D2E/DX2                !
 ! A30   A(20,14,21)           120.0043         estimate D2E/DX2                !
 ! A31   A(12,15,23)           119.996          estimate D2E/DX2                !
 ! A32   A(12,15,24)           120.0002         estimate D2E/DX2                !
 ! A33   A(23,15,24)           120.0038         estimate D2E/DX2                !
 ! A34   A(3,16,7)             121.0613         estimate D2E/DX2                !
 ! A35   A(3,16,9)             122.8096         estimate D2E/DX2                !
 ! A36   A(7,16,9)             115.9826         estimate D2E/DX2                !
 ! A37   A(13,17,25)           120.8882         estimate D2E/DX2                !
 ! A38   A(13,17,27)           119.1065         estimate D2E/DX2                !
 ! A39   A(25,17,27)           120.0053         estimate D2E/DX2                !
 ! A40   A(9,18,22)            108.1154         estimate D2E/DX2                !
 ! A41   A(9,18,43)            107.6991         estimate D2E/DX2                !
 ! A42   A(9,18,44)            110.9444         estimate D2E/DX2                !
 ! A43   A(22,18,43)           111.2729         estimate D2E/DX2                !
 ! A44   A(22,18,44)           110.7479         estimate D2E/DX2                !
 ! A45   A(43,18,44)           108.0332         estimate D2E/DX2                !
 ! A46   A(9,19,26)            113.5584         estimate D2E/DX2                !
 ! A47   A(9,19,45)            108.0095         estimate D2E/DX2                !
 ! A48   A(9,19,46)            110.4783         estimate D2E/DX2                !
 ! A49   A(26,19,45)           107.6637         estimate D2E/DX2                !
 ! A50   A(26,19,46)           106.4802         estimate D2E/DX2                !
 ! A51   A(45,19,46)           110.6275         estimate D2E/DX2                !
 ! A52   A(14,20,28)           120.0005         estimate D2E/DX2                !
 ! A53   A(14,20,47)           122.6767         estimate D2E/DX2                !
 ! A54   A(28,20,47)           117.3015         estimate D2E/DX2                !
 ! A55   A(14,21,29)           119.9929         estimate D2E/DX2                !
 ! A56   A(14,21,48)           120.7379         estimate D2E/DX2                !
 ! A57   A(29,21,48)           119.269          estimate D2E/DX2                !
 ! A58   A(10,22,18)           111.1104         estimate D2E/DX2                !
 ! A59   A(10,22,49)           108.065          estimate D2E/DX2                !
 ! A60   A(10,22,50)           106.8156         estimate D2E/DX2                !
 ! A61   A(18,22,49)           111.2207         estimate D2E/DX2                !
 ! A62   A(18,22,50)           111.0251         estimate D2E/DX2                !
 ! A63   A(49,22,50)           108.4365         estimate D2E/DX2                !
 ! A64   A(15,23,30)           119.9979         estimate D2E/DX2                !
 ! A65   A(15,23,51)           120.693          estimate D2E/DX2                !
 ! A66   A(30,23,51)           119.3088         estimate D2E/DX2                !
 ! A67   A(15,24,31)           119.9951         estimate D2E/DX2                !
 ! A68   A(15,24,52)           121.2242         estimate D2E/DX2                !
 ! A69   A(31,24,52)           118.7801         estimate D2E/DX2                !
 ! A70   A(4,25,17)            120.8914         estimate D2E/DX2                !
 ! A71   A(4,25,33)            119.1113         estimate D2E/DX2                !
 ! A72   A(17,25,33)           119.9972         estimate D2E/DX2                !
 ! A73   A(5,26,10)            122.1169         estimate D2E/DX2                !
 ! A74   A(5,26,19)            120.227          estimate D2E/DX2                !
 ! A75   A(10,26,19)           117.442          estimate D2E/DX2                !
 ! A76   A(17,27,34)           119.9975         estimate D2E/DX2                !
 ! A77   A(17,27,53)           120.7668         estimate D2E/DX2                !
 ! A78   A(34,27,53)           119.2353         estimate D2E/DX2                !
 ! A79   A(20,28,32)           120.0007         estimate D2E/DX2                !
 ! A80   A(20,28,55)           119.2196         estimate D2E/DX2                !
 ! A81   A(32,28,55)           120.7787         estimate D2E/DX2                !
 ! A82   A(21,29,32)           120.0028         estimate D2E/DX2                !
 ! A83   A(21,29,56)           119.1865         estimate D2E/DX2                !
 ! A84   A(32,29,56)           120.8108         estimate D2E/DX2                !
 ! A85   A(23,30,35)           119.9966         estimate D2E/DX2                !
 ! A86   A(23,30,57)           119.1925         estimate D2E/DX2                !
 ! A87   A(35,30,57)           120.8109         estimate D2E/DX2                !
 ! A88   A(24,31,35)           120.0017         estimate D2E/DX2                !
 ! A89   A(24,31,58)           119.192          estimate D2E/DX2                !
 ! A90   A(35,31,58)           120.8062         estimate D2E/DX2                !
 ! A91   A(1,32,28)            120.0001         estimate D2E/DX2                !
 ! A92   A(1,32,29)            120.0011         estimate D2E/DX2                !
 ! A93   A(28,32,29)           119.9988         estimate D2E/DX2                !
 ! A94   A(25,33,36)           119.9977         estimate D2E/DX2                !
 ! A95   A(25,33,59)           117.3365         estimate D2E/DX2                !
 ! A96   A(36,33,59)           122.6589         estimate D2E/DX2                !
 ! A97   A(27,34,36)           119.9977         estimate D2E/DX2                !
 ! A98   A(27,34,60)           119.6714         estimate D2E/DX2                !
 ! A99   A(36,34,60)           120.3309         estimate D2E/DX2                !
 ! A100  A(2,35,30)            119.9997         estimate D2E/DX2                !
 ! A101  A(2,35,31)            119.9953         estimate D2E/DX2                !
 ! A102  A(30,35,31)           120.005          estimate D2E/DX2                !
 ! A103  A(6,36,33)            120.0094         estimate D2E/DX2                !
 ! A104  A(6,36,34)            119.986          estimate D2E/DX2                !
 ! A105  A(33,36,34)           120.0046         estimate D2E/DX2                !
 ! A106  A(4,37,38)            109.2222         estimate D2E/DX2                !
 ! A107  A(4,37,39)            109.2191         estimate D2E/DX2                !
 ! A108  A(4,37,61)            111.2764         estimate D2E/DX2                !
 ! A109  A(38,37,39)           111.8779         estimate D2E/DX2                !
 ! A110  A(38,37,61)           108.1786         estimate D2E/DX2                !
 ! A111  A(39,37,61)           107.0671         estimate D2E/DX2                !
 ! A112  A(37,38,62)           110.7326         estimate D2E/DX2                !
 ! A113  A(37,38,63)           111.2909         estimate D2E/DX2                !
 ! A114  A(37,38,64)           111.1026         estimate D2E/DX2                !
 ! A115  A(62,38,63)           108.5689         estimate D2E/DX2                !
 ! A116  A(62,38,64)           106.5286         estimate D2E/DX2                !
 ! A117  A(63,38,64)           108.4537         estimate D2E/DX2                !
 ! A118  A(37,39,65)           110.8601         estimate D2E/DX2                !
 ! A119  A(37,39,66)           111.4519         estimate D2E/DX2                !
 ! A120  A(37,39,67)           110.4342         estimate D2E/DX2                !
 ! A121  A(65,39,66)           108.7254         estimate D2E/DX2                !
 ! A122  A(65,39,67)           106.6076         estimate D2E/DX2                !
 ! A123  A(66,39,67)           108.6083         estimate D2E/DX2                !
 ! A124  A(6,40,68)            111.5995         estimate D2E/DX2                !
 ! A125  A(6,40,69)            111.5664         estimate D2E/DX2                !
 ! A126  A(6,40,70)            107.1383         estimate D2E/DX2                !
 ! A127  A(68,40,69)           112.3403         estimate D2E/DX2                !
 ! A128  A(68,40,70)           106.9093         estimate D2E/DX2                !
 ! A129  A(69,40,70)           106.9191         estimate D2E/DX2                !
 ! D1    D(37,4,25,17)        -120.0098         estimate D2E/DX2                !
 ! D2    D(37,4,25,33)          60.0017         estimate D2E/DX2                !
 ! D3    D(25,4,37,38)        -118.6857         estimate D2E/DX2                !
 ! D4    D(25,4,37,39)         118.6664         estimate D2E/DX2                !
 ! D5    D(25,4,37,61)           0.6775         estimate D2E/DX2                !
 ! D6    D(40,6,36,33)           0.0168         estimate D2E/DX2                !
 ! D7    D(40,6,36,34)        -179.9958         estimate D2E/DX2                !
 ! D8    D(36,6,40,68)         -63.0631         estimate D2E/DX2                !
 ! D9    D(36,6,40,69)          63.5263         estimate D2E/DX2                !
 ! D10   D(36,6,40,70)        -179.7715         estimate D2E/DX2                !
 ! D11   D(13,7,11,12)         -17.0052         estimate D2E/DX2                !
 ! D12   D(13,7,11,14)         107.0639         estimate D2E/DX2                !
 ! D13   D(13,7,11,41)        -132.8678         estimate D2E/DX2                !
 ! D14   D(16,7,11,12)         174.0306         estimate D2E/DX2                !
 ! D15   D(16,7,11,14)         -61.9004         estimate D2E/DX2                !
 ! D16   D(16,7,11,41)          58.1679         estimate D2E/DX2                !
 ! D17   D(11,7,13,8)            7.0541         estimate D2E/DX2                !
 ! D18   D(11,7,13,17)        -172.0487         estimate D2E/DX2                !
 ! D19   D(16,7,13,8)          175.2548         estimate D2E/DX2                !
 ! D20   D(16,7,13,17)          -3.848          estimate D2E/DX2                !
 ! D21   D(11,7,16,3)          136.3902         estimate D2E/DX2                !
 ! D22   D(11,7,16,9)          -39.33           estimate D2E/DX2                !
 ! D23   D(13,7,16,3)          -30.0042         estimate D2E/DX2                !
 ! D24   D(13,7,16,9)          154.2756         estimate D2E/DX2                !
 ! D25   D(13,8,12,11)         -17.59           estimate D2E/DX2                !
 ! D26   D(13,8,12,15)        -147.764          estimate D2E/DX2                !
 ! D27   D(13,8,12,42)          95.6075         estimate D2E/DX2                !
 ! D28   D(12,8,13,7)            7.1582         estimate D2E/DX2                !
 ! D29   D(12,8,13,17)        -173.7481         estimate D2E/DX2                !
 ! D30   D(18,9,16,3)          -17.3324         estimate D2E/DX2                !
 ! D31   D(18,9,16,7)          158.3055         estimate D2E/DX2                !
 ! D32   D(19,9,16,3)          150.0011         estimate D2E/DX2                !
 ! D33   D(19,9,16,7)          -34.361          estimate D2E/DX2                !
 ! D34   D(16,9,18,22)         106.2549         estimate D2E/DX2                !
 ! D35   D(16,9,18,43)        -133.4072         estimate D2E/DX2                !
 ! D36   D(16,9,18,44)         -15.3675         estimate D2E/DX2                !
 ! D37   D(19,9,18,22)         -62.2545         estimate D2E/DX2                !
 ! D38   D(19,9,18,43)          58.0834         estimate D2E/DX2                !
 ! D39   D(19,9,18,44)         176.1231         estimate D2E/DX2                !
 ! D40   D(16,9,19,26)        -124.7089         estimate D2E/DX2                !
 ! D41   D(16,9,19,45)         115.962          estimate D2E/DX2                !
 ! D42   D(16,9,19,46)          -5.1586         estimate D2E/DX2                !
 ! D43   D(18,9,19,26)          43.2032         estimate D2E/DX2                !
 ! D44   D(18,9,19,45)         -76.1259         estimate D2E/DX2                !
 ! D45   D(18,9,19,46)         162.7536         estimate D2E/DX2                !
 ! D46   D(26,10,22,18)        -29.3097         estimate D2E/DX2                !
 ! D47   D(26,10,22,49)       -151.589          estimate D2E/DX2                !
 ! D48   D(26,10,22,50)         91.9182         estimate D2E/DX2                !
 ! D49   D(54,10,22,18)        159.1231         estimate D2E/DX2                !
 ! D50   D(54,10,22,49)         36.8438         estimate D2E/DX2                !
 ! D51   D(54,10,22,50)        -79.649          estimate D2E/DX2                !
 ! D52   D(22,10,26,5)        -174.997          estimate D2E/DX2                !
 ! D53   D(22,10,26,19)         10.3125         estimate D2E/DX2                !
 ! D54   D(54,10,26,5)          -3.4283         estimate D2E/DX2                !
 ! D55   D(54,10,26,19)       -178.1187         estimate D2E/DX2                !
 ! D56   D(7,11,12,8)           20.9904         estimate D2E/DX2                !
 ! D57   D(7,11,12,15)         150.3079         estimate D2E/DX2                !
 ! D58   D(7,11,12,42)         -89.5371         estimate D2E/DX2                !
 ! D59   D(14,11,12,8)        -100.0181         estimate D2E/DX2                !
 ! D60   D(14,11,12,15)         29.2994         estimate D2E/DX2                !
 ! D61   D(14,11,12,42)        149.4544         estimate D2E/DX2                !
 ! D62   D(41,11,12,8)         139.0133         estimate D2E/DX2                !
 ! D63   D(41,11,12,15)        -91.6692         estimate D2E/DX2                !
 ! D64   D(41,11,12,42)         28.4858         estimate D2E/DX2                !
 ! D65   D(7,11,14,20)         -25.7112         estimate D2E/DX2                !
 ! D66   D(7,11,14,21)         154.267          estimate D2E/DX2                !
 ! D67   D(12,11,14,20)         90.0078         estimate D2E/DX2                !
 ! D68   D(12,11,14,21)        -90.0141         estimate D2E/DX2                !
 ! D69   D(41,11,14,20)       -148.3033         estimate D2E/DX2                !
 ! D70   D(41,11,14,21)         31.6749         estimate D2E/DX2                !
 ! D71   D(8,12,15,23)        -145.5753         estimate D2E/DX2                !
 ! D72   D(8,12,15,24)          34.3996         estimate D2E/DX2                !
 ! D73   D(11,12,15,23)         90.0114         estimate D2E/DX2                !
 ! D74   D(11,12,15,24)        -90.0137         estimate D2E/DX2                !
 ! D75   D(42,12,15,23)        -30.6044         estimate D2E/DX2                !
 ! D76   D(42,12,15,24)        149.3704         estimate D2E/DX2                !
 ! D77   D(7,13,17,25)         -60.9257         estimate D2E/DX2                !
 ! D78   D(7,13,17,27)         119.0497         estimate D2E/DX2                !
 ! D79   D(8,13,17,25)         120.0233         estimate D2E/DX2                !
 ! D80   D(8,13,17,27)         -60.0013         estimate D2E/DX2                !
 ! D81   D(11,14,20,28)        179.9884         estimate D2E/DX2                !
 ! D82   D(11,14,20,47)         -1.7346         estimate D2E/DX2                !
 ! D83   D(21,14,20,28)          0.0102         estimate D2E/DX2                !
 ! D84   D(21,14,20,47)        178.2872         estimate D2E/DX2                !
 ! D85   D(11,14,21,29)       -179.9934         estimate D2E/DX2                !
 ! D86   D(11,14,21,48)         -0.1517         estimate D2E/DX2                !
 ! D87   D(20,14,21,29)         -0.0153         estimate D2E/DX2                !
 ! D88   D(20,14,21,48)        179.8265         estimate D2E/DX2                !
 ! D89   D(12,15,23,30)        179.989          estimate D2E/DX2                !
 ! D90   D(12,15,23,51)         -0.2401         estimate D2E/DX2                !
 ! D91   D(24,15,23,30)          0.0141         estimate D2E/DX2                !
 ! D92   D(24,15,23,51)        179.785          estimate D2E/DX2                !
 ! D93   D(12,15,24,31)       -179.9862         estimate D2E/DX2                !
 ! D94   D(12,15,24,52)          0.2839         estimate D2E/DX2                !
 ! D95   D(23,15,24,31)         -0.0113         estimate D2E/DX2                !
 ! D96   D(23,15,24,52)       -179.7412         estimate D2E/DX2                !
 ! D97   D(13,17,25,4)          -0.0071         estimate D2E/DX2                !
 ! D98   D(13,17,25,33)        179.9813         estimate D2E/DX2                !
 ! D99   D(27,17,25,4)        -179.9823         estimate D2E/DX2                !
 ! D100  D(27,17,25,33)          0.0061         estimate D2E/DX2                !
 ! D101  D(13,17,27,34)       -179.9817         estimate D2E/DX2                !
 ! D102  D(13,17,27,53)         -0.1922         estimate D2E/DX2                !
 ! D103  D(25,17,27,34)         -0.0061         estimate D2E/DX2                !
 ! D104  D(25,17,27,53)        179.7834         estimate D2E/DX2                !
 ! D105  D(9,18,22,10)          52.5356         estimate D2E/DX2                !
 ! D106  D(9,18,22,49)         172.966          estimate D2E/DX2                !
 ! D107  D(9,18,22,50)         -66.1901         estimate D2E/DX2                !
 ! D108  D(43,18,22,10)        -65.5399         estimate D2E/DX2                !
 ! D109  D(43,18,22,49)         54.8906         estimate D2E/DX2                !
 ! D110  D(43,18,22,50)        175.7345         estimate D2E/DX2                !
 ! D111  D(44,18,22,10)        174.2792         estimate D2E/DX2                !
 ! D112  D(44,18,22,49)        -65.2903         estimate D2E/DX2                !
 ! D113  D(44,18,22,50)         55.5535         estimate D2E/DX2                !
 ! D114  D(9,19,26,5)          169.6467         estimate D2E/DX2                !
 ! D115  D(9,19,26,10)         -15.5576         estimate D2E/DX2                !
 ! D116  D(45,19,26,5)         -70.827          estimate D2E/DX2                !
 ! D117  D(45,19,26,10)        103.9687         estimate D2E/DX2                !
 ! D118  D(46,19,26,5)          47.8434         estimate D2E/DX2                !
 ! D119  D(46,19,26,10)       -137.361          estimate D2E/DX2                !
 ! D120  D(14,20,28,32)         -0.0051         estimate D2E/DX2                !
 ! D121  D(14,20,28,55)        179.6328         estimate D2E/DX2                !
 ! D122  D(47,20,28,32)       -178.3731         estimate D2E/DX2                !
 ! D123  D(47,20,28,55)          1.2649         estimate D2E/DX2                !
 ! D124  D(14,21,29,32)          0.0153         estimate D2E/DX2                !
 ! D125  D(14,21,29,56)        179.9967         estimate D2E/DX2                !
 ! D126  D(48,21,29,32)       -179.8288         estimate D2E/DX2                !
 ! D127  D(48,21,29,56)          0.1527         estimate D2E/DX2                !
 ! D128  D(15,23,30,35)         -0.0077         estimate D2E/DX2                !
 ! D129  D(15,23,30,57)        179.9223         estimate D2E/DX2                !
 ! D130  D(51,23,30,35)       -179.7818         estimate D2E/DX2                !
 ! D131  D(51,23,30,57)          0.1483         estimate D2E/DX2                !
 ! D132  D(15,24,31,35)          0.002          estimate D2E/DX2                !
 ! D133  D(15,24,31,58)       -179.9034         estimate D2E/DX2                !
 ! D134  D(52,24,31,35)        179.7386         estimate D2E/DX2                !
 ! D135  D(52,24,31,58)         -0.1669         estimate D2E/DX2                !
 ! D136  D(4,25,33,36)         179.9892         estimate D2E/DX2                !
 ! D137  D(4,25,33,59)           0.9215         estimate D2E/DX2                !
 ! D138  D(17,25,33,36)          0.0006         estimate D2E/DX2                !
 ! D139  D(17,25,33,59)       -179.0671         estimate D2E/DX2                !
 ! D140  D(17,27,34,36)         -0.0006         estimate D2E/DX2                !
 ! D141  D(17,27,34,60)        179.9555         estimate D2E/DX2                !
 ! D142  D(53,27,34,36)       -179.7933         estimate D2E/DX2                !
 ! D143  D(53,27,34,60)          0.1628         estimate D2E/DX2                !
 ! D144  D(20,28,32,1)         179.9903         estimate D2E/DX2                !
 ! D145  D(20,28,32,29)          0.0051         estimate D2E/DX2                !
 ! D146  D(55,28,32,1)           0.358          estimate D2E/DX2                !
 ! D147  D(55,28,32,29)       -179.6271         estimate D2E/DX2                !
 ! D148  D(21,29,32,1)        -179.9954         estimate D2E/DX2                !
 ! D149  D(21,29,32,28)         -0.0102         estimate D2E/DX2                !
 ! D150  D(56,29,32,1)           0.0235         estimate D2E/DX2                !
 ! D151  D(56,29,32,28)       -179.9914         estimate D2E/DX2                !
 ! D152  D(23,30,35,2)         179.9932         estimate D2E/DX2                !
 ! D153  D(23,30,35,31)         -0.0015         estimate D2E/DX2                !
 ! D154  D(57,30,35,2)           0.0644         estimate D2E/DX2                !
 ! D155  D(57,30,35,31)       -179.9304         estimate D2E/DX2                !
 ! D156  D(24,31,35,2)        -179.9904         estimate D2E/DX2                !
 ! D157  D(24,31,35,30)          0.0044         estimate D2E/DX2                !
 ! D158  D(58,31,35,2)          -0.0865         estimate D2E/DX2                !
 ! D159  D(58,31,35,30)        179.9082         estimate D2E/DX2                !
 ! D160  D(25,33,36,6)         179.9801         estimate D2E/DX2                !
 ! D161  D(25,33,36,34)         -0.0073         estimate D2E/DX2                !
 ! D162  D(59,33,36,6)          -1.0036         estimate D2E/DX2                !
 ! D163  D(59,33,36,34)        179.009          estimate D2E/DX2                !
 ! D164  D(27,34,36,6)        -179.9801         estimate D2E/DX2                !
 ! D165  D(27,34,36,33)          0.0073         estimate D2E/DX2                !
 ! D166  D(60,34,36,6)           0.0641         estimate D2E/DX2                !
 ! D167  D(60,34,36,33)       -179.9485         estimate D2E/DX2                !
 ! D168  D(4,37,38,62)         -58.8057         estimate D2E/DX2                !
 ! D169  D(4,37,38,63)        -179.6659         estimate D2E/DX2                !
 ! D170  D(4,37,38,64)          59.3674         estimate D2E/DX2                !
 ! D171  D(39,37,38,62)         62.2374         estimate D2E/DX2                !
 ! D172  D(39,37,38,63)        -58.6227         estimate D2E/DX2                !
 ! D173  D(39,37,38,64)       -179.5895         estimate D2E/DX2                !
 ! D174  D(61,37,38,62)        179.9308         estimate D2E/DX2                !
 ! D175  D(61,37,38,63)         59.0707         estimate D2E/DX2                !
 ! D176  D(61,37,38,64)        -61.896          estimate D2E/DX2                !
 ! D177  D(4,37,39,65)          58.5486         estimate D2E/DX2                !
 ! D178  D(4,37,39,66)         179.8043         estimate D2E/DX2                !
 ! D179  D(4,37,39,67)         -59.3805         estimate D2E/DX2                !
 ! D180  D(38,37,39,65)        -62.4963         estimate D2E/DX2                !
 ! D181  D(38,37,39,66)         58.7594         estimate D2E/DX2                !
 ! D182  D(38,37,39,67)        179.5746         estimate D2E/DX2                !
 ! D183  D(61,37,39,65)        179.1469         estimate D2E/DX2                !
 ! D184  D(61,37,39,66)        -59.5974         estimate D2E/DX2                !
 ! D185  D(61,37,39,67)         61.2178         estimate D2E/DX2                !
 --------------------------------------------------------------------------------
 Trust Radius=3.00D-01 FncErr=1.00D-07 GrdErr=1.00D-06 EigMax=2.50D+02 EigMin=1.00D-04
 Number of steps in this run=    398 maximum allowed number of steps=    420.
 GradGradGradGradGradGradGradGradGradGradGradGradGradGradGradGradGradGrad

 Stoichiometry    C30H30Cl2N4O4
 Framework group  C1[X(C30H30Cl2N4O4)]
 Deg. of freedom   204
 Full point group                 C1      NOp   1
 Largest Abelian subgroup         C1      NOp   1
 Largest concise Abelian subgroup C1      NOp   1
                         Standard orientation:                         
 ---------------------------------------------------------------------
 Center     Atomic      Atomic             Coordinates (Angstroms)
 Number     Number       Type             X           Y           Z
 ---------------------------------------------------------------------
      1         17           0       -4.778525    2.128723    3.682506
      2         17           0       -6.916749   -2.525020   -1.670318
      3          8           0        1.840238    1.028147    1.640359
      4          8           0        3.347810   -0.521424   -0.845146
      5          8           0        2.288331    3.856270   -3.175860
      6          8           0        5.108701   -3.465535    2.461249
      7          7           0        0.471789    0.271959   -0.050868
      8          7           0       -0.234171   -1.829878   -0.659322
      9          7           0        1.174278    2.547652    0.021533
     10          7           0        2.904264    4.423353   -1.048205
     11          6           0       -0.857223    0.503759   -0.605850
     12          6           0       -1.146067   -0.842312   -1.308105
     13          6           0        0.673936   -1.116501   -0.062429
     14          6           0       -1.847298    0.913879    0.476716
     15          6           0       -2.594355   -1.264466   -1.398906
     16          6           0        1.231776    1.267596    0.591383
     17          6           0        1.842093   -1.721326    0.586075
     18          6           0        1.507454    3.714428    0.826839
     19          6           0        1.055674    2.808184   -1.410599
     20          6           0       -1.633859    0.527070    1.799767
     21          6           0       -2.967034    1.676590    0.144970
     22          6           0        2.863975    4.217971    0.386505
     23          6           0       -3.363482   -0.885683   -2.499233
     24          6           0       -3.161753   -2.033273   -0.382699
     25          6           0        3.135629   -1.402854    0.172492
     26          6           0        2.155249    3.709353   -1.958764
     27          6           0        1.646282   -2.625609    1.629842
     28          6           0       -2.540264    0.902777    2.791096
     29          6           0       -3.873545    2.052215    1.136408
     30          6           0       -4.700108   -1.275478   -2.583188
     31          6           0       -4.498375   -2.423082   -0.466752
     32          6           0       -3.660106    1.665406    2.459458
     33          6           0        4.233447   -1.988864    0.802707
     34          6           0        2.744100   -3.211619    2.260057
     35          6           0       -5.267506   -2.044172   -1.566896
     36          6           0        4.037635   -2.893260    1.846389
     37          6           0        4.048815   -1.007950   -1.987630
     38          6           0        5.335798   -0.215778   -2.160361
     39          6           0        3.149475   -0.901608   -3.209657
     40          6           0        6.402974   -3.095365    1.988353
     41          1           0       -0.848580    1.294879   -1.355761
     42          1           0       -0.768832   -0.770136   -2.340117
     43          1           0        0.729569    4.468461    0.658915
     44          1           0        1.513530    3.465410    1.892698
     45          1           0        0.097720    3.308944   -1.585405
     46          1           0        1.110433    1.872961   -1.975579
     47          1           0       -0.792967   -0.088429    2.101719
     48          1           0       -3.143479    1.986813   -0.881342
     49          1           0        3.110963    5.166752    0.872121
     50          1           0        3.649152    3.491967    0.624942
     51          1           0       -2.933842   -0.283929   -3.295576
     52          1           0       -2.582147   -2.335872    0.485178
     53          1           0        0.643703   -2.880052    1.964486
     54          1           0        3.617867    5.046475   -1.413491
     55          1           0       -2.364706    0.589299    3.817036
     56          1           0       -4.741562    2.646594    0.863284
     57          1           0       -5.287686   -0.971949   -3.445794
     58          1           0       -4.927623   -3.020693    0.333255
     59          1           0        5.218781   -1.698951    0.457285
     60          1           0        2.585470   -3.914774    3.073028
     61          1           0        4.311900   -2.068298   -1.872210
     62          1           0        5.120877    0.852050   -2.280760
     63          1           0        5.899118   -0.558464   -3.033618
     64          1           0        5.976070   -0.306893   -1.277503
     65          1           0        2.835912    0.135273   -3.374282
     66          1           0        3.654162   -1.263206   -4.110596
     67          1           0        2.234502   -1.485907   -3.063172
     68          1           0        6.552304   -3.395477    0.945526
     69          1           0        6.600074   -2.029731    2.147209
     70          1           0        7.135176   -3.647495    2.586618
 ---------------------------------------------------------------------
 Rotational constants (GHZ):           0.0997637           0.0521813           0.0471750
 Standard basis: 6-311++G(d,p) (5D, 7F)
 There are  1146 symmetry adapted cartesian basis functions of A   symmetry.
 There are  1106 symmetry adapted basis functions of A   symmetry.
  1106 basis functions,  1744 primitive gaussians,  1146 cartesian basis functions
   152 alpha electrons      152 beta electrons
       nuclear repulsion energy      5071.9371030410 Hartrees.
 NAtoms=   70 NActive=   70 NUniq=   70 SFac= 1.00D+00 NAtFMM=   60 NAOKFM=T Big=T
 Integral buffers will be    131072 words long.
 Raffenetti 2 integral format.
 Two-electron integral symmetry is turned on.
 ------------------------------------------------------------------------------
 Polarizable Continuum Model (PCM)
 =================================
 Model                : PCM.
 Atomic radii         : UFF (Universal Force Field).
 Polarization charges : Total charges.
 Charge compensation  : None.
 Solution method      : On-the-fly selection.
 Cavity type          : Scaled VdW (van der Waals Surface) (Alpha=1.100).
 Cavity algorithm     : GePol (No added spheres)
                        Default sphere list used, NSphG=   70.
                        Lebedev-Laikov grids with approx.  5.0 points / Ang**2.
                        Smoothing algorithm: York/Karplus (Gamma=1.0000).
                        Polarization charges: spherical gaussians, with
                                              point-specific exponents (IZeta= 3).
                        Self-potential: point-specific (ISelfS= 7).
                        Self-field    : sphere-specific E.n sum rule (ISelfD= 2).
 1st derivatives      : Analytical E(r).r(x)/FMM algorithm (CHGder, D1EAlg=3).
                        Cavity 1st derivative terms included.
 Solvent              : Water, Eps=  78.355300 Eps(inf)=   1.777849
 ------------------------------------------------------------------------------
 One-electron integrals computed using PRISM.
 NBasis=  1106 RedAO= T EigKep=  1.47D-06  NBF=  1106
 NBsUse=  1095 1.00D-06 EigRej=  5.63D-07 NBFU=  1095
 ExpMin= 3.60D-02 ExpMax= 1.06D+05 ExpMxC= 3.62D+03 IAcc=3 IRadAn=         5 AccDes= 0.00D+00
 Harris functional with IExCor=  402 and IRadAn=       5 diagonalized for initial guess.
 HarFok:  IExCor=  402 AccDes= 0.00D+00 IRadAn=         5 IDoV= 1 UseB2=F ITyADJ=14
 ICtDFT=  3500011 ScaDFX=  1.000000  1.000000  1.000000  1.000000
 FoFCou: FMM=F IPFlag=           0 FMFlag=      100000 FMFlg1=        2001
         NFxFlg=           0 DoJE=T BraDBF=F KetDBF=T FulRan=T
         wScrn=  0.000000 ICntrl=       500 IOpCl=  0 I1Cent=   200000004 NGrid=           0
         NMat0=    1 NMatS0=      1 NMatT0=    0 NMatD0=    1 NMtDS0=    0 NMtDT0=    0
 Petite list used in FoFCou.
 Requested convergence on RMS density matrix=1.00D-08 within 128 cycles.
 Requested convergence on MAX density matrix=1.00D-06.
 Requested convergence on             energy=1.00D-06.
 No special actions if energy rises.
 Inv3:  Mode=1 IEnd=    73062675.
 Iteration    1 A*A^-1 deviation from unit magnitude is 6.11D-15 for   4929.
 Iteration    1 A*A^-1 deviation from orthogonality  is 4.77D-15 for   4929   4883.
 Iteration    1 A^-1*A deviation from unit magnitude is 5.88D-15 for   4929.
 Iteration    1 A^-1*A deviation from orthogonality  is 8.34D-14 for   3280   2642.
 Error on total polarization charges =  0.02678
 SCF Done:  E(RB3LYP) =  -2602.08000320     A.U. after   16 cycles
            NFock= 16  Conv=0.39D-08     -V/T= 2.0036

 **********************************************************************

            Population analysis using the SCF Density.

 **********************************************************************

 Orbital symmetries:
       Occupied  (A) (A) (A) (A) (A) (A) (A) (A) (A) (A) (A) (A)
                 (A) (A) (A) (A) (A) (A) (A) (A) (A) (A) (A) (A)
                 (A) (A) (A) (A) (A) (A) (A) (A) (A) (A) (A) (A)
                 (A) (A) (A) (A) (A) (A) (A) (A) (A) (A) (A) (A)
                 (A) (A) (A) (A) (A) (A) (A) (A) (A) (A) (A) (A)
                 (A) (A) (A) (A) (A) (A) (A) (A) (A) (A) (A) (A)
                 (A) (A) (A) (A) (A) (A) (A) (A) (A) (A) (A) (A)
                 (A) (A) (A) (A) (A) (A) (A) (A) (A) (A) (A) (A)
                 (A) (A) (A) (A) (A) (A) (A) (A) (A) (A) (A) (A)
                 (A) (A) (A) (A) (A) (A) (A) (A) (A) (A) (A) (A)
                 (A) (A) (A) (A) (A) (A) (A) (A) (A) (A) (A) (A)
                 (A) (A) (A) (A) (A) (A) (A) (A) (A) (A) (A) (A)
                 (A) (A) (A) (A) (A) (A) (A) (A)
       Virtual   (A) (A) (A) (A) (A) (A) (A) (A) (A) (A) (A) (A)
                 (A) (A) (A) (A) (A) (A) (A) (A) (A) (A) (A) (A)
                 (A) (A) (A) (A) (A) (A) (A) (A) (A) (A) (A) (A)
                 (A) (A) (A) (A) (A) (A) (A) (A) (A) (A) (A) (A)
                 (A) (A) (A) (A) (A) (A) (A) (A) (A) (A) (A) (A)
                 (A) (A) (A) (A) (A) (A) (A) (A) (A) (A) (A) (A)
                 (A) (A) (A) (A) (A) (A) (A) (A) (A) (A) (A) (A)
                 (A) (A) (A) (A) (A) (A) (A) (A) (A) (A) (A) (A)
                 (A) (A) (A) (A) (A) (A) (A) (A) (A) (A) (A) (A)
                 (A) (A) (A) (A) (A) (A) (A) (A) (A) (A) (A) (A)
                 (A) (A) (A) (A) (A) (A) (A) (A) (A) (A) (A) (A)
                 (A) (A) (A) (A) (A) (A) (A) (A) (A) (A) (A) (A)
                 (A) (A) (A) (A) (A) (A) (A) (A) (A) (A) (A) (A)
                 (A) (A) (A) (A) (A) (A) (A) (A) (A) (A) (A) (A)
                 (A) (A) (A) (A) (A) (A) (A) (A) (A) (A) (A) (A)
                 (A) (A) (A) (A) (A) (A) (A) (A) (A) (A) (A) (A)
                 (A) (A) (A) (A) (A) (A) (A) (A) (A) (A) (A) (A)
                 (A) (A) (A) (A) (A) (A) (A) (A) (A) (A) (A) (A)
                 (A) (A) (A) (A) (A) (A) (A) (A) (A) (A) (A) (A)
                 (A) (A) (A) (A) (A) (A) (A) (A) (A) (A) (A) (A)
                 (A) (A) (A) (A) (A) (A) (A) (A) (A) (A) (A) (A)
                 (A) (A) (A) (A) (A) (A) (A) (A) (A) (A) (A) (A)
                 (A) (A) (A) (A) (A) (A) (A) (A) (A) (A) (A) (A)
                 (A) (A) (A) (A) (A) (A) (A) (A) (A) (A) (A) (A)
                 (A) (A) (A) (A) (A) (A) (A) (A) (A) (A) (A) (A)
                 (A) (A) (A) (A) (A) (A) (A) (A) (A) (A) (A) (A)
                 (A) (A) (A) (A) (A) (A) (A) (A) (A) (A) (A) (A)
                 (A) (A) (A) (A) (A) (A) (A) (A) (A) (A) (A) (A)
                 (A) (A) (A) (A) (A) (A) (A) (A) (A) (A) (A) (A)
                 (A) (A) (A) (A) (A) (A) (A) (A) (A) (A) (A) (A)
                 (A) (A) (A) (A) (A) (A) (A) (A) (A) (A) (A) (A)
                 (A) (A) (A) (A) (A) (A) (A) (A) (A) (A) (A) (A)
                 (A) (A) (A) (A) (A) (A) (A) (A) (A) (A) (A) (A)
                 (A) (A) (A) (A) (A) (A) (A) (A) (A) (A) (A) (A)
                 (A) (A) (A) (A) (A) (A) (A) (A) (A) (A) (A) (A)
                 (A) (A) (A) (A) (A) (A) (A) (A) (A) (A) (A) (A)
                 (A) (A) (A) (A) (A) (A) (A) (A) (A) (A) (A) (A)
                 (A) (A) (A) (A) (A) (A) (A) (A) (A) (A) (A) (A)
                 (A) (A) (A) (A) (A) (A) (A) (A) (A) (A) (A) (A)
                 (A) (A) (A) (A) (A) (A) (A) (A) (A) (A) (A) (A)
                 (A) (A) (A) (A) (A) (A) (A) (A) (A) (A) (A) (A)
                 (A) (A) (A) (A) (A) (A) (A) (A) (A) (A) (A) (A)
                 (A) (A) (A) (A) (A) (A) (A) (A) (A) (A) (A) (A)
                 (A) (A) (A) (A) (A) (A) (A) (A) (A) (A) (A) (A)
                 (A) (A) (A) (A) (A) (A) (A) (A) (A) (A) (A) (A)
                 (A) (A) (A) (A) (A) (A) (A) (A) (A) (A) (A) (A)
                 (A) (A) (A) (A) (A) (A) (A) (A) (A) (A) (A) (A)
                 (A) (A) (A) (A) (A) (A) (A) (A) (A) (A) (A) (A)
                 (A) (A) (A) (A) (A) (A) (A) (A) (A) (A) (A) (A)
                 (A) (A) (A) (A) (A) (A) (A) (A) (A) (A) (A) (A)
                 (A) (A) (A) (A) (A) (A) (A) (A) (A) (A) (A) (A)
                 (A) (A) (A) (A) (A) (A) (A) (A) (A) (A) (A) (A)
                 (A) (A) (A) (A) (A) (A) (A) (A) (A) (A) (A) (A)
                 (A) (A) (A) (A) (A) (A) (A) (A) (A) (A) (A) (A)
                 (A) (A) (A) (A) (A) (A) (A) (A) (A) (A) (A) (A)
                 (A) (A) (A) (A) (A) (A) (A) (A) (A) (A) (A) (A)
                 (A) (A) (A) (A) (A) (A) (A) (A) (A) (A) (A) (A)
                 (A) (A) (A) (A) (A) (A) (A) (A) (A) (A) (A) (A)
                 (A) (A) (A) (A) (A) (A) (A) (A) (A) (A) (A) (A)
                 (A) (A) (A) (A) (A) (A) (A) (A) (A) (A) (A) (A)
                 (A) (A) (A) (A) (A) (A) (A) (A) (A) (A) (A) (A)
                 (A) (A) (A) (A) (A) (A) (A) (A) (A) (A) (A) (A)
                 (A) (A) (A) (A) (A) (A) (A) (A) (A) (A) (A) (A)
                 (A) (A) (A) (A) (A) (A) (A) (A) (A) (A) (A) (A)
                 (A) (A) (A) (A) (A) (A) (A) (A) (A) (A) (A) (A)
                 (A) (A) (A) (A) (A) (A) (A) (A) (A) (A) (A) (A)
                 (A) (A) (A) (A) (A) (A) (A) (A) (A) (A) (A) (A)
                 (A) (A) (A) (A) (A) (A) (A) (A) (A) (A) (A) (A)
                 (A) (A) (A) (A) (A) (A) (A) (A) (A) (A) (A) (A)
                 (A) (A) (A) (A) (A) (A) (A) (A) (A) (A) (A) (A)
                 (A) (A) (A) (A) (A) (A) (A) (A) (A) (A) (A) (A)
                 (A) (A) (A) (A) (A) (A) (A) (A) (A) (A) (A) (A)
                 (A) (A) (A) (A) (A) (A) (A) (A) (A) (A) (A) (A)
                 (A) (A) (A) (A) (A) (A) (A) (A) (A) (A) (A) (A)
                 (A) (A) (A) (A) (A) (A) (A) (A) (A) (A) (A) (A)
                 (A) (A) (A) (A) (A) (A) (A) (A) (A) (A) (A) (A)
                 (A) (A) (A) (A) (A) (A) (A) (A) (A) (A) (A) (A)
                 (A) (A) (A) (A) (A) (A) (A) (A) (A) (A) (A) (A)
                 (A) (A) (A) (A) (A) (A) (A)
 The electronic state is 1-A.
 Alpha  occ. eigenvalues -- -101.56424-101.56372 -19.16682 -19.15156 -19.11126
 Alpha  occ. eigenvalues --  -19.10879 -14.37066 -14.36265 -14.35333 -14.31267
 Alpha  occ. eigenvalues --  -10.32818 -10.29661 -10.26774 -10.24950 -10.24705
 Alpha  occ. eigenvalues --  -10.24499 -10.24397 -10.23558 -10.23534 -10.23417
 Alpha  occ. eigenvalues --  -10.22617 -10.22276 -10.22169 -10.21860 -10.19828
 Alpha  occ. eigenvalues --  -10.19619 -10.19520 -10.19428 -10.19375 -10.19307
 Alpha  occ. eigenvalues --  -10.19296 -10.19272 -10.19194 -10.19117 -10.19101
 Alpha  occ. eigenvalues --  -10.18873 -10.18087 -10.17959 -10.16259 -10.16209
 Alpha  occ. eigenvalues --   -9.47963  -9.47911  -7.24398  -7.24345  -7.23453
 Alpha  occ. eigenvalues --   -7.23410  -7.23401  -7.23359  -1.08195  -1.07804
 Alpha  occ. eigenvalues --   -1.07175  -1.05482  -1.00831  -0.97120  -0.92971
 Alpha  occ. eigenvalues --   -0.90922  -0.90853  -0.89605  -0.87405  -0.86011
 Alpha  occ. eigenvalues --   -0.85080  -0.80746  -0.79943  -0.78428  -0.77085
 Alpha  occ. eigenvalues --   -0.76834  -0.76695  -0.75675  -0.75356  -0.74214
 Alpha  occ. eigenvalues --   -0.72536  -0.70551  -0.69547  -0.68409  -0.65751
 Alpha  occ. eigenvalues --   -0.64134  -0.64029  -0.63348  -0.62959  -0.62221
 Alpha  occ. eigenvalues --   -0.60435  -0.59526  -0.59384  -0.58969  -0.56891
 Alpha  occ. eigenvalues --   -0.56472  -0.54655  -0.53789  -0.52239  -0.51962
 Alpha  occ. eigenvalues --   -0.51665  -0.50556  -0.49991  -0.49846  -0.49777
 Alpha  occ. eigenvalues --   -0.48989  -0.48535  -0.48122  -0.47464  -0.47381
 Alpha  occ. eigenvalues --   -0.47105  -0.46687  -0.46247  -0.45827  -0.45249
 Alpha  occ. eigenvalues --   -0.44892  -0.44642  -0.44130  -0.43979  -0.43740
 Alpha  occ. eigenvalues --   -0.43465  -0.43233  -0.42720  -0.42001  -0.41474
 Alpha  occ. eigenvalues --   -0.41305  -0.40974  -0.40718  -0.40436  -0.40053
 Alpha  occ. eigenvalues --   -0.39589  -0.39254  -0.38957  -0.38661  -0.38256
 Alpha  occ. eigenvalues --   -0.37694  -0.37640  -0.37089  -0.36797  -0.36534
 Alpha  occ. eigenvalues --   -0.36026  -0.35752  -0.34740  -0.34542  -0.34348
 Alpha  occ. eigenvalues --   -0.33612  -0.32786  -0.32634  -0.32597  -0.30884
 Alpha  occ. eigenvalues --   -0.29943  -0.29773  -0.28908  -0.27680  -0.27265
 Alpha  occ. eigenvalues --   -0.27171  -0.26015  -0.25771  -0.25365  -0.25335
 Alpha  occ. eigenvalues --   -0.24716  -0.23171
 Alpha virt. eigenvalues --   -0.04346  -0.03661  -0.03492  -0.03051  -0.02738
 Alpha virt. eigenvalues --   -0.02579  -0.01668  -0.00962  -0.00817  -0.00557
 Alpha virt. eigenvalues --   -0.00196   0.00059   0.00680   0.00911   0.00952
 Alpha virt. eigenvalues --    0.01274   0.01331   0.01574   0.01864   0.02186
 Alpha virt. eigenvalues --    0.02510   0.02567   0.02660   0.02801   0.03165
 Alpha virt. eigenvalues --    0.03608   0.04052   0.04333   0.04368   0.04812
 Alpha virt. eigenvalues --    0.04915   0.05129   0.05261   0.05548   0.05652
 Alpha virt. eigenvalues --    0.05930   0.06027   0.06245   0.06576   0.06944
 Alpha virt. eigenvalues --    0.07102   0.07238   0.07426   0.07534   0.08002
 Alpha virt. eigenvalues --    0.08085   0.08396   0.08598   0.08922   0.09114
 Alpha virt. eigenvalues --    0.09249   0.09466   0.09521   0.09751   0.09993
 Alpha virt. eigenvalues --    0.10153   0.10341   0.10389   0.10722   0.11067
 Alpha virt. eigenvalues --    0.11112   0.11217   0.11413   0.11614   0.11779
 Alpha virt. eigenvalues --    0.11833   0.11856   0.11946   0.12012   0.12105
 Alpha virt. eigenvalues --    0.12300   0.12466   0.12500   0.12704   0.12984
 Alpha virt. eigenvalues --    0.13023   0.13327   0.13459   0.13521   0.13723
 Alpha virt. eigenvalues --    0.13963   0.14015   0.14117   0.14248   0.14399
 Alpha virt. eigenvalues --    0.14508   0.14630   0.14737   0.14826   0.14896
 Alpha virt. eigenvalues --    0.15104   0.15342   0.15442   0.15515   0.15615
 Alpha virt. eigenvalues --    0.15658   0.15888   0.16087   0.16297   0.16346
 Alpha virt. eigenvalues --    0.16615   0.16826   0.16927   0.17208   0.17306
 Alpha virt. eigenvalues --    0.17443   0.17525   0.17742   0.17854   0.18091
 Alpha virt. eigenvalues --    0.18234   0.18414   0.18433   0.18757   0.19015
 Alpha virt. eigenvalues --    0.19132   0.19273   0.19431   0.19561   0.19714
 Alpha virt. eigenvalues --    0.19836   0.19975   0.20147   0.20322   0.20427
 Alpha virt. eigenvalues --    0.20684   0.20970   0.21121   0.21228   0.21477
 Alpha virt. eigenvalues --    0.21623   0.21807   0.21916   0.22249   0.22391
 Alpha virt. eigenvalues --    0.22631   0.22704   0.22743   0.22937   0.23187
 Alpha virt. eigenvalues --    0.23326   0.23575   0.23862   0.23890   0.24030
 Alpha virt. eigenvalues --    0.24219   0.24378   0.24456   0.24678   0.25088
 Alpha virt. eigenvalues --    0.25191   0.25361   0.25604   0.25632   0.25947
 Alpha virt. eigenvalues --    0.26001   0.26174   0.26428   0.26573   0.26704
 Alpha virt. eigenvalues --    0.26870   0.27029   0.27172   0.27479   0.27814
 Alpha virt. eigenvalues --    0.27906   0.27961   0.28201   0.28376   0.28698
 Alpha virt. eigenvalues --    0.28837   0.28973   0.29026   0.29169   0.29270
 Alpha virt. eigenvalues --    0.29353   0.29794   0.30104   0.30178   0.30424
 Alpha virt. eigenvalues --    0.30539   0.30735   0.30801   0.31133   0.31307
 Alpha virt. eigenvalues --    0.31439   0.31555   0.31851   0.32031   0.32192
 Alpha virt. eigenvalues --    0.32333   0.32458   0.32578   0.32853   0.32903
 Alpha virt. eigenvalues --    0.33134   0.33288   0.33398   0.33737   0.34020
 Alpha virt. eigenvalues --    0.34083   0.34420   0.34513   0.34771   0.35190
 Alpha virt. eigenvalues --    0.35305   0.35552   0.35769   0.36102   0.36428
 Alpha virt. eigenvalues --    0.36515   0.36748   0.36822   0.37046   0.37184
 Alpha virt. eigenvalues --    0.37424   0.37720   0.37861   0.38118   0.38408
 Alpha virt. eigenvalues --    0.38653   0.38705   0.38923   0.39524   0.39684
 Alpha virt. eigenvalues --    0.39977   0.40029   0.40337   0.40489   0.40984
 Alpha virt. eigenvalues --    0.41162   0.41343   0.41557   0.41904   0.42193
 Alpha virt. eigenvalues --    0.42476   0.42746   0.42972   0.43326   0.43594
 Alpha virt. eigenvalues --    0.43648   0.44296   0.44801   0.44929   0.45071
 Alpha virt. eigenvalues --    0.45579   0.45811   0.46077   0.46215   0.46511
 Alpha virt. eigenvalues --    0.46857   0.47288   0.47700   0.48124   0.48256
 Alpha virt. eigenvalues --    0.48504   0.48667   0.48965   0.49721   0.50094
 Alpha virt. eigenvalues --    0.50697   0.50993   0.51367   0.52044   0.52440
 Alpha virt. eigenvalues --    0.53024   0.53342   0.53579   0.53974   0.54227
 Alpha virt. eigenvalues --    0.54749   0.55396   0.55440   0.55778   0.55989
 Alpha virt. eigenvalues --    0.56318   0.57099   0.57562   0.58056   0.58250
 Alpha virt. eigenvalues --    0.58608   0.59307   0.59568   0.59970   0.60273
 Alpha virt. eigenvalues --    0.60669   0.60748   0.61013   0.61536   0.61638
 Alpha virt. eigenvalues --    0.62033   0.62199   0.62451   0.62673   0.63208
 Alpha virt. eigenvalues --    0.63376   0.63650   0.63987   0.64315   0.64577
 Alpha virt. eigenvalues --    0.65014   0.65276   0.65321   0.65849   0.66460
 Alpha virt. eigenvalues --    0.66682   0.66848   0.67071   0.67214   0.67354
 Alpha virt. eigenvalues --    0.67616   0.68028   0.68086   0.68361   0.68917
 Alpha virt. eigenvalues --    0.69139   0.69720   0.69819   0.69913   0.70614
 Alpha virt. eigenvalues --    0.70744   0.71093   0.71337   0.71969   0.72216
 Alpha virt. eigenvalues --    0.72506   0.72629   0.72841   0.73388   0.73528
 Alpha virt. eigenvalues --    0.73661   0.74020   0.74429   0.74791   0.75047
 Alpha virt. eigenvalues --    0.75292   0.75433   0.75463   0.75853   0.76426
 Alpha virt. eigenvalues --    0.76504   0.76620   0.77228   0.77349   0.77489
 Alpha virt. eigenvalues --    0.77764   0.78292   0.78524   0.79229   0.79538
 Alpha virt. eigenvalues --    0.79932   0.80129   0.80345   0.80549   0.80876
 Alpha virt. eigenvalues --    0.81185   0.81558   0.81925   0.82055   0.82514
 Alpha virt. eigenvalues --    0.82719   0.83150   0.83428   0.83741   0.84460
 Alpha virt. eigenvalues --    0.84894   0.85100   0.85429   0.85648   0.85889
 Alpha virt. eigenvalues --    0.86283   0.86489   0.86613   0.87065   0.87556
 Alpha virt. eigenvalues --    0.87775   0.87974   0.88275   0.88864   0.89205
 Alpha virt. eigenvalues --    0.89871   0.89890   0.90273   0.90978   0.91274
 Alpha virt. eigenvalues --    0.91680   0.91902   0.92287   0.92844   0.93393
 Alpha virt. eigenvalues --    0.93917   0.94496   0.94680   0.94949   0.95485
 Alpha virt. eigenvalues --    0.95660   0.95977   0.96487   0.96826   0.97237
 Alpha virt. eigenvalues --    0.97824   0.97850   0.98517   0.98949   0.99479
 Alpha virt. eigenvalues --    1.00050   1.00567   1.01259   1.01765   1.01952
 Alpha virt. eigenvalues --    1.02345   1.02724   1.02833   1.03128   1.03503
 Alpha virt. eigenvalues --    1.03987   1.04781   1.04968   1.05039   1.05434
 Alpha virt. eigenvalues --    1.06346   1.06483   1.06684   1.06895   1.07989
 Alpha virt. eigenvalues --    1.08196   1.09090   1.09746   1.09912   1.10086
 Alpha virt. eigenvalues --    1.10577   1.10839   1.11357   1.11938   1.12460
 Alpha virt. eigenvalues --    1.13250   1.13558   1.14253   1.14810   1.14996
 Alpha virt. eigenvalues --    1.15869   1.16442   1.16850   1.17532   1.18054
 Alpha virt. eigenvalues --    1.18848   1.19110   1.19951   1.20589   1.21486
 Alpha virt. eigenvalues --    1.21683   1.22852   1.23061   1.23790   1.24354
 Alpha virt. eigenvalues --    1.24708   1.25405   1.25703   1.26430   1.27375
 Alpha virt. eigenvalues --    1.27906   1.28221   1.28490   1.28991   1.29306
 Alpha virt. eigenvalues --    1.29769   1.30019   1.30161   1.31116   1.31475
 Alpha virt. eigenvalues --    1.31911   1.32147   1.32925   1.33764   1.34095
 Alpha virt. eigenvalues --    1.34368   1.35147   1.35588   1.36352   1.38640
 Alpha virt. eigenvalues --    1.39132   1.40820   1.40967   1.41540   1.42025
 Alpha virt. eigenvalues --    1.42599   1.43674   1.44595   1.46126   1.46510
 Alpha virt. eigenvalues --    1.46978   1.47973   1.48418   1.49905   1.50013
 Alpha virt. eigenvalues --    1.50480   1.50743   1.51109   1.51662   1.52235
 Alpha virt. eigenvalues --    1.52819   1.53060   1.53949   1.54164   1.54459
 Alpha virt. eigenvalues --    1.54828   1.55721   1.55745   1.56091   1.56949
 Alpha virt. eigenvalues --    1.57124   1.57265   1.57383   1.58090   1.58466
 Alpha virt. eigenvalues --    1.58642   1.59155   1.59569   1.59665   1.59888
 Alpha virt. eigenvalues --    1.60391   1.60554   1.60927   1.61192   1.61752
 Alpha virt. eigenvalues --    1.61825   1.62264   1.62646   1.62718   1.62816
 Alpha virt. eigenvalues --    1.63532   1.63964   1.64346   1.64920   1.65142
 Alpha virt. eigenvalues --    1.65890   1.66385   1.66798   1.67317   1.67876
 Alpha virt. eigenvalues --    1.68024   1.68440   1.69052   1.69437   1.69771
 Alpha virt. eigenvalues --    1.70406   1.70813   1.71080   1.71581   1.72144
 Alpha virt. eigenvalues --    1.72496   1.72846   1.73313   1.73625   1.74082
 Alpha virt. eigenvalues --    1.74566   1.75061   1.75261   1.76641   1.76774
 Alpha virt. eigenvalues --    1.77256   1.77515   1.77999   1.78560   1.79455
 Alpha virt. eigenvalues --    1.79923   1.80548   1.80567   1.81663   1.82246
 Alpha virt. eigenvalues --    1.82450   1.83332   1.83637   1.84533   1.84939
 Alpha virt. eigenvalues --    1.85152   1.85704   1.86442   1.87513   1.87665
 Alpha virt. eigenvalues --    1.87900   1.88431   1.88818   1.89245   1.89611
 Alpha virt. eigenvalues --    1.90207   1.90649   1.92114   1.92599   1.92837
 Alpha virt. eigenvalues --    1.93541   1.94256   1.94508   1.95416   1.95952
 Alpha virt. eigenvalues --    1.96317   1.96891   1.97365   1.97690   1.98372
 Alpha virt. eigenvalues --    1.98554   1.98783   1.99354   1.99584   1.99826
 Alpha virt. eigenvalues --    2.00250   2.01234   2.01305   2.02090   2.02864
 Alpha virt. eigenvalues --    2.03103   2.03603   2.03988   2.04198   2.05427
 Alpha virt. eigenvalues --    2.06050   2.06758   2.07075   2.07753   2.08056
 Alpha virt. eigenvalues --    2.08326   2.08400   2.09350   2.09699   2.10241
 Alpha virt. eigenvalues --    2.11057   2.11486   2.12542   2.13012   2.13398
 Alpha virt. eigenvalues --    2.13899   2.14381   2.15275   2.15699   2.16246
 Alpha virt. eigenvalues --    2.17318   2.18560   2.20463   2.21294   2.21717
 Alpha virt. eigenvalues --    2.22408   2.22539   2.24054   2.24700   2.25305
 Alpha virt. eigenvalues --    2.26413   2.26834   2.27034   2.27648   2.28546
 Alpha virt. eigenvalues --    2.29599   2.29958   2.31424   2.31830   2.32115
 Alpha virt. eigenvalues --    2.32414   2.33242   2.33486   2.34024   2.35123
 Alpha virt. eigenvalues --    2.36625   2.36922   2.37467   2.38884   2.40655
 Alpha virt. eigenvalues --    2.42576   2.43060   2.43895   2.44104   2.44541
 Alpha virt. eigenvalues --    2.45096   2.45887   2.46451   2.47051   2.47483
 Alpha virt. eigenvalues --    2.48523   2.48871   2.49087   2.49449   2.49615
 Alpha virt. eigenvalues --    2.50739   2.51533   2.52181   2.52539   2.52795
 Alpha virt. eigenvalues --    2.53505   2.54523   2.55130   2.55752   2.56009
 Alpha virt. eigenvalues --    2.56786   2.57118   2.57447   2.58361   2.58968
 Alpha virt. eigenvalues --    2.59288   2.60701   2.60889   2.61834   2.62849
 Alpha virt. eigenvalues --    2.63039   2.63557   2.64042   2.64462   2.64912
 Alpha virt. eigenvalues --    2.65457   2.66528   2.67131   2.67301   2.68306
 Alpha virt. eigenvalues --    2.68600   2.68985   2.69661   2.71121   2.71406
 Alpha virt. eigenvalues --    2.72168   2.72435   2.72811   2.73461   2.74700
 Alpha virt. eigenvalues --    2.75207   2.75557   2.76276   2.76560   2.76944
 Alpha virt. eigenvalues --    2.77334   2.77950   2.78070   2.79216   2.79659
 Alpha virt. eigenvalues --    2.80210   2.80887   2.81109   2.82508   2.82679
 Alpha virt. eigenvalues --    2.82972   2.83691   2.83919   2.84365   2.85272
 Alpha virt. eigenvalues --    2.85622   2.85727   2.86013   2.86757   2.87823
 Alpha virt. eigenvalues --    2.87920   2.88649   2.88989   2.89075   2.89904
 Alpha virt. eigenvalues --    2.90354   2.90933   2.91115   2.91911   2.92485
 Alpha virt. eigenvalues --    2.92673   2.93095   2.93417   2.94306   2.95420
 Alpha virt. eigenvalues --    2.96009   2.96125   2.96324   2.96654   2.97504
 Alpha virt. eigenvalues --    2.98414   2.99407   3.00670   3.01458   3.02397
 Alpha virt. eigenvalues --    3.02607   3.03790   3.04895   3.05764   3.06488
 Alpha virt. eigenvalues --    3.07443   3.07859   3.09734   3.10135   3.10475
 Alpha virt. eigenvalues --    3.12012   3.12677   3.13881   3.14682   3.16070
 Alpha virt. eigenvalues --    3.16513   3.18002   3.18425   3.19869   3.20217
 Alpha virt. eigenvalues --    3.21266   3.21677   3.22380   3.23392   3.24074
 Alpha virt. eigenvalues --    3.24357   3.25666   3.26656   3.29334   3.30489
 Alpha virt. eigenvalues --    3.31956   3.32578   3.34101   3.35283   3.37174
 Alpha virt. eigenvalues --    3.37621   3.39847   3.41427   3.42381   3.43368
 Alpha virt. eigenvalues --    3.44807   3.45463   3.48836   3.49404   3.50040
 Alpha virt. eigenvalues --    3.51047   3.51282   3.52622   3.53518   3.54722
 Alpha virt. eigenvalues --    3.58412   3.59477   3.60211   3.61273   3.63303
 Alpha virt. eigenvalues --    3.63680   3.65971   3.67272   3.68600   3.68772
 Alpha virt. eigenvalues --    3.71035   3.71835   3.77017   3.78016   3.78192
 Alpha virt. eigenvalues --    3.80151   3.80469   3.80685   3.81347   3.81849
 Alpha virt. eigenvalues --    3.82920   3.83775   3.84231   3.85142   3.85699
 Alpha virt. eigenvalues --    3.87179   3.91131   3.98321   3.99458   4.00460
 Alpha virt. eigenvalues --    4.00793   4.03426   4.06582   4.07606   4.08327
 Alpha virt. eigenvalues --    4.10926   4.12324   4.15901   4.16802   4.17937
 Alpha virt. eigenvalues --    4.18423   4.18655   4.20025   4.20434   4.21723
 Alpha virt. eigenvalues --    4.22228   4.22818   4.28875   4.29620   4.31202
 Alpha virt. eigenvalues --    4.36204   4.38818   4.62050   4.75700   4.78171
 Alpha virt. eigenvalues --    4.83353   4.84466   4.85034   4.85519   4.87115
 Alpha virt. eigenvalues --    4.99611   5.04069   5.06763   5.11036   5.20424
 Alpha virt. eigenvalues --    5.22549   5.23405   5.27234   5.33684   5.39014
 Alpha virt. eigenvalues --    5.52807   5.78587   5.79288   5.86039   5.88307
 Alpha virt. eigenvalues --    9.79437   9.80182  23.59027  23.63890  23.65510
 Alpha virt. eigenvalues --   23.81741  23.84506  23.86355  23.87276  23.88800
 Alpha virt. eigenvalues --   23.90225  23.92089  23.92690  23.93662  23.94959
 Alpha virt. eigenvalues --   23.95544  23.96177  23.97125  23.97703  23.98861
 Alpha virt. eigenvalues --   23.99113  23.99515  24.01163  24.05606  24.07966
 Alpha virt. eigenvalues --   24.08614  24.08954  24.09249  24.10560  24.16886
 Alpha virt. eigenvalues --   24.17125  24.17775  25.84212  25.87473  26.14440
 Alpha virt. eigenvalues --   26.16227  26.65683  26.68783  35.54687  35.59295
 Alpha virt. eigenvalues --   35.59972  35.69974  49.96392  50.00532  50.01695
 Alpha virt. eigenvalues --   50.05510 215.78830 215.79769
          Condensed to atoms (all electrons):
 Mulliken charges:
               1
     1  Cl   0.475341
     2  Cl   0.439692
     3  O   -0.107678
     4  O    0.142079
     5  O   -0.390161
     6  O   -0.174294
     7  N    0.684921
     8  N    0.127734
     9  N    0.518530
    10  N   -0.276673
    11  C    0.207928
    12  C    0.131875
    13  C   -0.573431
    14  C    0.076235
    15  C    0.434482
    16  C   -1.503506
    17  C    0.290218
    18  C   -0.225349
    19  C   -0.164154
    20  C   -0.444388
    21  C   -0.295255
    22  C   -0.305282
    23  C   -0.403797
    24  C   -0.463614
    25  C    0.006814
    26  C   -0.071780
    27  C   -0.300752
    28  C   -0.507328
    29  C   -0.725699
    30  C   -0.564906
    31  C   -0.740981
    32  C    0.371553
    33  C    0.400958
    34  C   -0.554216
    35  C    0.355864
    36  C   -0.805463
    37  C    0.095309
    38  C   -0.527315
    39  C   -0.637810
    40  C   -0.377968
    41  H    0.271675
    42  H    0.315375
    43  H    0.218306
    44  H    0.200734
    45  H    0.264673
    46  H    0.229647
    47  H    0.224629
    48  H    0.194402
    49  H    0.215644
    50  H    0.206440
    51  H    0.175716
    52  H    0.185109
    53  H    0.194832
    54  H    0.366499
    55  H    0.231820
    56  H    0.235568
    57  H    0.230488
    58  H    0.228877
    59  H    0.236865
    60  H    0.223734
    61  H    0.174499
    62  H    0.177566
    63  H    0.163932
    64  H    0.126772
    65  H    0.157878
    66  H    0.189299
    67  H    0.182469
    68  H    0.174172
    69  H    0.177172
    70  H    0.207473
 Sum of Mulliken charges =  -0.00000
 Mulliken charges with hydrogens summed into heavy atoms:
               1
     1  Cl   0.475341
     2  Cl   0.439692
     3  O   -0.107678
     4  O    0.142079
     5  O   -0.390161
     6  O   -0.174294
     7  N    0.684921
     8  N    0.127734
     9  N    0.518530
    10  N    0.089827
    11  C    0.479603
    12  C    0.447250
    13  C   -0.573431
    14  C    0.076235
    15  C    0.434482
    16  C   -1.503506
    17  C    0.290218
    18  C    0.193691
    19  C    0.330166
    20  C   -0.219759
    21  C   -0.100853
    22  C    0.116802
    23  C   -0.228081
    24  C   -0.278504
    25  C    0.006814
    26  C   -0.071780
    27  C   -0.105920
    28  C   -0.275508
    29  C   -0.490132
    30  C   -0.334418
    31  C   -0.512104
    32  C    0.371553
    33  C    0.637823
    34  C   -0.330482
    35  C    0.355864
    36  C   -0.805463
    37  C    0.269808
    38  C   -0.059045
    39  C   -0.108164
    40  C    0.180848
 Electronic spatial extent (au):  <R**2>=          24566.6592
 Charge=             -0.0000 electrons
 Dipole moment (field-independent basis, Debye):
    X=              5.7182    Y=              4.5556    Z=             -0.8223  Tot=              7.3571
 Quadrupole moment (field-independent basis, Debye-Ang):
   XX=           -232.7594   YY=           -243.5929   ZZ=           -265.8937
   XY=             -7.6245   XZ=              6.2111   YZ=              7.3116
 Traceless Quadrupole moment (field-independent basis, Debye-Ang):
   XX=             14.6559   YY=              3.8225   ZZ=            -18.4784
   XY=             -7.6245   XZ=              6.2111   YZ=              7.3116
 Octapole moment (field-independent basis, Debye-Ang**2):
  XXX=            473.1501  YYY=            165.3782  ZZZ=             19.7567  XYY=             93.8928
  XXY=             17.0911  XXZ=            -18.3492  XZZ=            -28.7878  YZZ=            -77.2778
  YYZ=             84.2787  XYZ=             99.8260
 Hexadecapole moment (field-independent basis, Debye-Ang**3):
 XXXX=         -18682.1661 YYYY=          -7710.7280 ZZZZ=          -5647.7147 XXXY=           -705.6629
 XXXZ=            137.3734 YYYX=            378.6223 YYYZ=            207.1952 ZZZX=            170.0023
 ZZZY=            252.0911 XXYY=          -4323.0034 XXZZ=          -4295.9142 YYZZ=          -2603.0253
 XXYZ=           -129.5417 YYXZ=             64.4390 ZZXY=           -137.9943
 N-N= 5.071937103041D+03 E-N=-1.624837811545D+04  KE= 2.592820038715D+03
 D1PCM: PCM CHGder 1st derivatives, ID1Alg=3 FixD1E=F DoIter=F DoCFld=F I1PDM=0.
 Calling FoFJK, ICntrl=      2127 FMM=T ISym2X=0 I1Cent= 0 IOpClX= 0 NMat=1 NMatS=1 NMatT=0.
 ***** Axes restored to original set *****
 -------------------------------------------------------------------
 Center     Atomic                   Forces (Hartrees/Bohr)
 Number     Number              X              Y              Z
 -------------------------------------------------------------------
      1       17          -0.011425489    0.002746359    0.013754223
      2       17          -0.017360367   -0.005528541   -0.001339868
      3        8          -0.008501452    0.009270608   -0.012866371
      4        8          -0.012985821    0.002614716    0.007681493
      5        8          -0.001339270   -0.004655955    0.004567885
      6        8          -0.002736209   -0.005623975    0.005283391
      7        7           0.003564307    0.002493157   -0.015236374
      8        7           0.007673406    0.022904083    0.010356165
      9        7          -0.002992245   -0.033066345    0.005956091
     10        7          -0.016839386   -0.007002729   -0.022425393
     11        6          -0.015999237    0.017292429    0.000281276
     12        6           0.005270277   -0.010719764   -0.012410080
     13        6          -0.006649957   -0.011584655   -0.002089175
     14        6           0.009527653   -0.003270295   -0.004285240
     15        6           0.011251593   -0.000748533    0.004790899
     16        6           0.007712884    0.007352737    0.012995766
     17        6          -0.005362004    0.003991004   -0.000470767
     18        6           0.001573464   -0.001490327    0.001913188
     19        6           0.001516749   -0.004980629    0.004934758
     20        6          -0.009832930   -0.000044872    0.006859130
     21        6          -0.001089369    0.000053260    0.006649203
     22        6           0.012129859    0.003944253    0.007208288
     23        6          -0.004186523   -0.003821508    0.002488476
     24        6          -0.008267348   -0.001227784   -0.001609841
     25        6           0.008218152   -0.009713927    0.006030478
[...]
 387259,0.00181519,-0.00606321,0.00005937,-0.00006070,0.00002761,0.0001
 7260,-0.00003944,0.00008063,-0.00000143,-0.00005018,0.00000737,-0.0000
 0198,-0.00000299,0.00000289,-0.00002228,-0.00001537,0.00000302,0.00000
 753,0.00002843,-0.00004947,-0.00034886,0.00021164,-0.00003921,-0.00000
 097,0.00000145,0.00001390,-0.00000393,-0.00002745,0.00000681,0.0000142
 5,0.00011466,-0.00000719,0.00042035,-0.00011516,-0.00001492,0.00000375
 ,0.00000606,0.00001208,-0.00000949,-0.00000022,-0.00001311,0.00000033,
 0.00000123,-0.00000300,0.00000184,0.00000153,-0.00000668,0.00000168,-0
 .00000118,-0.00000460,0.00000914,0.00000803,-0.00000592,0.00000511,0.0
 0000222,0.00000095,-0.00066947,-0.00017645,-0.00012327,0.00000959,0.00
 000902,-0.00001016,-0.00007827,0.00000352,0.00009838,0.00000265,-0.000
 00171,0.00000032,0.00000191,-0.00000183,-0.00000131,0.00000342,0.00000
 021,0.00000308,0.00000223,-0.00000042,0.00000059,-0.00000295,0.0000013
 1,0.00000356,0.00076425,0.00004967,0.00008575,0.00060436,-0.00037918,0
 .00006313,-0.00000443,-0.00000151,0.00000068,-0.00298600,0.00237018,-0
 .00048166,0.00010885,0.00001233,-0.00003698,-0.00000532,0.00000994,-0.
 00000532,-0.00001611,-0.00000346,0.00000315,0.01236651,-0.03978783,-0.
 29923981,0.00001112,-0.00000969,0.00000104,0.00000860,-0.00000821,0.00
 000875,-0.00000056,-0.00000476,-0.00000114,-0.00000072,0.00000190,0.00
 000084,0.00000210,-0.00000112,0.00000281,0.00000157,0.00000180,-0.0000
 0254,-0.00000252,-0.00000044,0.00000544,-0.00000062,0.00000034,0.00000
 062,-0.00000184,-0.00000168,0.00000053,0.00000071,0.00000045,0.0000001
 9,-0.00000141,-0.00000092,0.,-0.00000355,-0.00000381,0.00000375,0.0000
 5473,-0.00001889,0.00000586,-0.00000024,0.00000051,0.00000003,0.000000
 29,0.00000009,-0.00000103,0.00000099,-0.00000068,-0.00000077,0.0000021
 2,0.00000025,0.00000007,0.00000127,0.00000067,-0.00000079,-0.00059983,
 0.00009550,0.00054226,-0.00006759,-0.00003265,-0.00000750,-0.00001457,
 0.00001338,0.00001383,0.00000155,0.00000028,0.00000027,-0.00000781,0.0
 0000067,0.00000086,0.00000440,-0.00000469,0.00000120,0.00000167,0.0000
 0005,-0.00000042,-0.00000042,-0.00000347,0.00000714,0.00000103,0.00000
 061,-0.00000030,-0.02265447,0.03991939,0.32409007,-0.00000375,0.000001
 58,0.00000443,-0.00000643,-0.00000195,0.00000064,-0.00000878,0.0000658
 2,0.00001993,0.00007083,0.00007611,-0.00011753,0.00000362,0.00000512,-
 0.00000653,-0.02589294,-0.03321143,-0.00302082,-0.00004085,0.00005189,
 -0.00001335,-0.00014879,0.00004095,-0.00005190,0.00000363,0.00004052,-
 0.00000429,0.00000358,0.00000251,-0.00000028,0.00002031,0.00000773,-0.
 00000055,-0.00000524,-0.00002935,0.00003233,0.00027945,-0.00021350,-0.
 00002997,0.00000113,-0.00000087,-0.00001129,0.00000194,0.00002363,-0.0
 0000565,-0.00001740,-0.00009449,-0.00000254,0.00020416,0.00061886,-0.0
 0055491,-0.00000481,-0.00000637,-0.00001016,0.00000762,0.00000068,0.00
 001015,0.00000015,-0.00000069,0.00000238,-0.00000199,-0.00000261,0.000
 00500,-0.00000262,0.00000254,0.00000172,-0.00000769,-0.00000681,0.0000
 0440,-0.00000384,-0.00000208,-0.00000057,-0.00057255,0.00036533,0.0003
 6494,-0.00000873,-0.00000767,0.00000489,0.00054011,-0.00047254,0.00079
 738,-0.00000132,0.00000218,0.00000003,-0.00000060,0.00000254,0.0000014
 6,-0.00000293,0.00000024,-0.00000203,-0.00000174,0.00000052,-0.0000003
 2,0.00000152,-0.00000155,-0.00000321,0.00049515,0.00077341,-0.00066522
 ,-0.00180228,0.00080753,0.00036319,0.00000408,0.00000052,-0.00000129,0
 .00566637,-0.00529127,0.00159784,-0.00005213,-0.00003330,0.00000712,0.
 00000779,-0.00000309,-0.00002787,0.00001361,0.00000733,0.00000362,-0.0
 5886514,-0.04331500,-0.01338673,-0.00000855,0.00000706,-0.00000099,-0.
 00000857,0.00000840,-0.00000796,0.00000113,0.00000395,0.00000122,0.000
 00009,-0.00000116,-0.00000080,-0.00000144,0.00000088,-0.00000237,-0.00
 000185,-0.00000141,0.00000173,0.00000043,0.00000016,-0.00000449,0.0000
 0049,-0.00000075,-0.00000068,0.00000166,0.00000132,-0.00000041,0.00000
 027,-0.00000059,-0.00000029,0.00000118,0.00000084,0.00000002,0.0000033
 4,0.00000323,-0.00000338,-0.00004910,-0.00003833,-0.00004893,0.0000000
 7,-0.00000041,0.00000008,-0.00000058,0.,0.00000081,-0.00000087,0.00000
 050,0.00000060,-0.00000175,-0.00000028,-0.00000011,-0.00000098,-0.0000
 0063,0.00000056,-0.00119428,-0.00005059,-0.00128840,0.00008733,-0.0000
 6344,-0.00018551,-0.00000239,0.00002132,-0.00000260,0.00000200,0.00000
 219,0.00000701,0.00000482,0.00000448,0.00000353,-0.00000089,0.00001222
 ,0.00001336,-0.00000312,0.00000174,-0.00000244,0.00000053,0.00000295,-
 0.00000697,-0.00000110,-0.00000066,0.00000069,0.00252441,0.00175981,-0
 .00105275,0.07241167,-0.00000471,0.00000225,0.00000568,-0.00000808,-0.
 00000293,0.00000054,0.00000009,0.00007971,0.00002286,-0.00002076,0.000
 15174,-0.00013053,0.00000497,0.00000670,-0.00000785,-0.01166068,-0.001
 48822,0.00303408,-0.00006632,0.00007850,-0.00003355,-0.00016809,0.0000
 2371,-0.00007596,0.00000422,0.00005002,-0.00000398,0.00000514,0.000003
 39,0.00000021,0.00002382,0.00001768,-0.00000760,0.00000578,-0.00002692
 ,0.00004257,0.00037930,-0.00014263,0.00015385,0.00000153,-0.00000277,-
 0.00001553,0.00000465,0.00002651,-0.00000506,-0.00003141,-0.00011601,-
 0.00001003,-0.00054086,-0.00001232,0.00003405,-0.00000394,-0.00000568,
 -0.00001296,0.00000822,0.00000115,0.00001161,0.00000029,-0.00000074,0.
 00000352,-0.00000171,-0.00000102,0.00000707,-0.00000317,0.00000332,0.0
 0000256,-0.00000900,-0.00000790,0.00000641,-0.00000543,-0.00000244,-0.
 00000105,0.00071199,-0.00024371,-0.00025271,-0.00001249,-0.00001010,0.
 00000520,0.00002654,0.00011058,-0.00014394,-0.00000261,0.00000220,-0.0
 0000034,-0.00000243,0.00000133,0.00000159,-0.00000381,-0.00000030,-0.0
 0000293,-0.00000236,0.00000081,-0.00000062,0.00000309,-0.00000112,-0.0
 0000364,-0.00085054,0.00008614,0.00014158,-0.00042873,0.00009328,-0.00
 030782,0.00000488,0.00000218,-0.00000039,0.00259812,-0.00042559,0.0016
 7034,-0.00009382,-0.00000129,0.00008422,0.00001551,-0.00000369,-0.0000
 1982,0.00002059,0.00000420,-0.00000494,-0.04906817,-0.27939937,-0.0623
 0331,-0.00001271,0.00001019,-0.00000174,-0.00001286,0.00001110,-0.0000
 0983,0.00000075,0.00000467,0.00000153,0.00000025,-0.00000173,-0.000000
 40,-0.00000189,0.00000063,-0.00000269,-0.00000174,-0.00000209,0.000003
 15,0.00000253,0.00000003,-0.00000649,0.00000069,-0.00000051,-0.0000005
 6,0.00000213,0.00000192,-0.00000025,0.00000049,-0.00000138,-0.00000011
 ,0.00000161,0.00000064,-0.00000014,0.00000383,0.00000409,-0.00000435,-
 0.00005239,0.00001936,-0.00000610,-0.00000012,-0.00000011,-0.00000002,
 -0.00000083,-0.00000036,0.00000126,-0.00000103,0.00000070,0.00000078,-
 0.00000214,-0.00000036,-0.00000015,-0.00000139,-0.00000095,0.00000066,
 0.00091297,0.00030045,0.00027869,0.00005204,0.00000062,-0.00001267,-0.
 00000246,-0.00002079,0.00000360,0.00000173,-0.00000221,0.00000266,0.00
 000611,0.00000878,0.00000023,0.00000109,-0.00000281,0.00001216,-0.0000
 0101,-0.00000070,0.00000110,0.00000090,0.00000290,-0.00000800,0.000000
 03,-0.00000131,0.00000227,0.00052434,-0.00310654,-0.00051372,0.0612713
 1,0.30054070,0.00000284,-0.00000138,-0.00000341,0.00000457,0.00000161,
 -0.00000042,0.00000439,-0.00004084,-0.00001030,-0.00002367,-0.00018660
 ,0.00016950,-0.00000231,-0.00000486,0.00000648,0.00736189,0.01362893,0
 .00404228,0.00003636,-0.00003366,0.00001236,0.00009862,-0.00002123,0.0
 0004180,-0.00000091,-0.00003000,0.00000234,-0.00000098,-0.00000280,0.0
 0000042,-0.00001489,-0.00000656,0.00000019,-0.00000525,0.00001339,-0.0
 0001018,-0.00014999,0.00010726,-0.00007918,-0.00000030,0.00000147,0.00
 000950,-0.00000360,-0.00001461,0.00000274,0.00000809,0.00007118,0.0000
 0753,0.00024468,-0.00008714,0.00005024,0.00000306,0.00000380,0.0000083
 0,-0.00000585,-0.00000006,-0.00000752,-0.00000022,0.00000062,-0.000002
 38,0.00000049,0.00000053,-0.00000446,0.00000079,-0.00000014,-0.0000023
 5,0.00000516,0.00000461,-0.00000338,0.00000306,0.00000172,0.00000020,-
 0.00012746,0.00044346,-0.00025991,0.00000527,0.00000697,-0.00000578,0.
 00001763,-0.00008081,-0.00003544,0.00000160,-0.00000159,0.00000003,0.0
 0000165,-0.00000063,-0.00000080,0.00000214,0.00000026,0.00000161,0.000
 00134,-0.00000030,0.00000043,-0.00000174,0.00000068,0.00000236,0.00003
 500,-0.00089354,0.00041729,0.00012618,-0.00014146,-0.00020143,-0.00000
 270,-0.00000101,0.00000046,-0.00150840,0.00041441,-0.00002502,0.000073
 12,0.00006048,-0.00006469,-0.00001246,0.00000852,-0.00000928,-0.000008
 80,-0.00001529,-0.00000802,-0.01476671,-0.06340881,-0.06793917,0.00000
 667,-0.00000542,0.00000083,0.00000937,-0.00000861,0.00000592,-0.000000
 27,-0.00000277,-0.00000110,-0.00000034,0.00000110,0.00000037,0.0000013
 8,-0.00000077,0.00000151,0.00000027,0.00000095,-0.00000196,-0.00000167
 ,-0.00000040,0.00000372,-0.00000030,0.00000059,0.00000054,-0.00000100,
 -0.00000149,0.00000032,0.00000024,0.00000046,0.00000116,-0.00000093,-0
 .00000053,-0.00000006,-0.00000232,-0.00000196,0.00000305,0.00002444,0.
 00000611,0.00000975,-0.00000018,0.00000103,-0.00000005,0.00000064,0.00
 000022,-0.00000068,0.00000054,-0.00000052,-0.00000052,0.00000124,0.000
 00016,0.00000005,0.00000085,0.00000042,-0.00000049,-0.00053720,0.00017
 905,-0.00071402,0.00000206,0.00003450,0.00004406,-0.00000853,-0.000009
 13,-0.00001886,0.00000466,-0.00001076,0.00000907,-0.00000909,-0.000010
 71,0.00000330,0.00000945,0.00003118,0.00001945,0.00000633,-0.00000461,
 0.00000690,-0.00000187,-0.00000415,0.00000890,0.00000353,0.00000142,0.
 00000304,-0.00653740,-0.02972689,-0.00616069,0.01168648,0.06440145,0.0
 6560664,-0.00000485,0.00000211,0.00000567,-0.00000797,-0.00000281,0.00
 000052,-0.00001175,0.00007865,0.00001586,0.00002394,0.00026614,-0.0002
 5758,0.00000457,0.00000746,-0.00001040,-0.03628348,0.02084091,-0.01393
 362,-0.00006586,0.00006444,-0.00002297,-0.00016224,0.00003745,-0.00006
 716,0.00000249,0.00005178,-0.00000596,0.00000269,0.00000372,-0.0000012
 6,0.00002519,0.00001254,-0.00000041,0.00000795,-0.00002499,0.00003014,
 0.00033043,-0.00016346,0.00008007,0.00000027,-0.00000221,-0.00001546,0
 .00000547,0.00002499,-0.00000574,-0.00001719,-0.00011847,-0.00000176,-
 0.00006010,0.00018679,-0.00016738,-0.00000415,-0.00000667,-0.00001365,
 0.00001011,0.00000006,0.00001275,0.00000042,-0.00000066,0.00000381,-0.
 00000173,-0.00000119,0.00000718,-0.00000199,0.00000176,0.00000356,-0.0
 0000886,-0.00000758,0.00000614,-0.00000515,-0.00000235,-0.00000061,0.0
 0016827,-0.00001828,0.00003818,-0.00001070,-0.00001033,0.00000876,-0.0
 0022176,-0.00047816,0.00042061,-0.00000277,0.00000188,-0.00000073,-0.0
 0000221,0.00000156,0.00000166,-0.00000364,-0.00000056,-0.00000289,-0.0
 0000212,0.00000031,-0.00000088,0.00000336,-0.00000099,-0.00000385,-0.0
 0025532,-0.00038925,0.00042290,-0.00132116,0.00114094,-0.00079951,0.00
 000480,0.00000221,-0.00000030,-0.00169828,-0.00356631,0.00340307,-0.00
 013438,-0.00004374,0.00008108,0.00001982,0.00000206,-0.00001198,0.0000
 2550,0.00000756,-0.00000050,-0.13336969,0.09710243,-0.07579038,-0.0000
 1114,0.00000940,-0.00000136,-0.00001333,0.00001191,-0.00000955,0.00000
 068,0.00000512,0.00000136,0.00000057,-0.00000189,-0.00000066,-0.000002
 12,0.00000116,-0.00000281,-0.00000166,-0.00000195,0.00000298,0.0000020
 2,-0.00000020,-0.00000643,0.00000078,-0.00000046,-0.00000066,0.0000020
 2,0.00000191,-0.00000048,-0.00000032,-0.00000055,-0.00000049,0.0000015
 5,0.00000071,-0.00000001,0.00000368,0.00000439,-0.00000425,-0.00013690
 ,0.00007496,-0.00005150,0.00000017,-0.00000067,-0.00000003,-0.00000064
 ,-0.00000016,0.00000122,-0.00000107,0.00000073,0.00000078,-0.00000207,
 -0.00000029,-0.00000013,-0.00000147,-0.00000078,0.00000080,0.00039129,
 0.00003999,-0.00014175,0.00002374,-0.00004663,0.00004144,0.00000716,0.
 00000036,-0.00000027,-0.00000148,0.00000478,-0.00000125,0.00001072,0.0
 0001108,-0.00000087,-0.00000909,-0.00000158,-0.00000591,-0.00000413,0.
 00000170,-0.00000107,0.00000066,0.00000565,-0.00001220,-0.00000204,-0.
 00000123,0.00000040,0.00328373,-0.00179778,-0.00000460,0.00636352,-0.0
 0352179,0.00394126,0.16311722,0.00000123,-0.00000072,-0.00000153,0.000
 00191,0.00000075,-0.00000015,0.00000548,-0.00001736,-0.00000150,-0.000
 03262,-0.00007750,0.00009765,-0.00000091,-0.00000252,0.00000312,-0.007
 84501,0.00731348,-0.00510830,0.00001602,-0.00001173,0.00000500,0.00003
 541,-0.00000658,0.00001297,0.00000035,-0.00001308,0.00000128,0.0000000
 9,-0.00000135,0.00000033,-0.00000556,-0.00000315,0.00000044,-0.0000036
 6,0.00000656,0.00000004,-0.00004397,0.00003011,-0.00005393,-0.00000003
 ,0.00000006,0.00000323,-0.00000239,-0.00000447,0.00000134,0.00000137,0
 .00003047,0.00000094,0.00011792,-0.00004618,0.00001170,0.00000098,0.00
 000150,0.00000353,-0.00000337,0.00000030,-0.00000339,0.00000055,0.0000
 0121,-0.00000042,0.00000041,0.00000024,-0.00000169,-0.00000035,-0.0000
 0020,-0.00000104,0.00000153,0.00000135,-0.00000159,0.00000196,0.000000
 89,0.00000016,0.00001679,0.00034940,-0.00020449,0.00000209,0.00000313,
 -0.00000271,-0.00001694,-0.00007723,0.00008173,0.00000042,-0.00000082,
 -0.00000015,0.00000057,-0.00000052,-0.00000057,0.00000088,0.00000004,0
 .00000070,0.00000061,-0.00000031,-0.00000009,-0.00000049,0.00000060,0.
 00000109,-0.00016135,-0.00032911,0.00057245,-0.00016682,0.00035881,-0.
 00004572,-0.00000119,-0.00000056,0.00000027,-0.00248911,0.00053381,0.0
 0020801,0.00003073,0.00003808,-0.00002477,-0.00000488,0.00000129,-0.00
 000553,-0.00000236,-0.00000742,-0.00000473,0.10722147,-0.16556407,0.08
 871003,0.00000263,-0.00000214,0.00000036,0.00000467,-0.00000383,0.0000
 0228,0.00000007,-0.00000133,-0.00000040,-0.00000022,0.00000045,0.00000
 021,0.00000077,-0.00000029,0.00000063,-0.00000011,0.00000030,-0.000000
 68,-0.00000110,-0.00000050,0.00000140,-0.00000005,0.00000020,0.0000002
 1,-0.00000032,-0.00000061,0.00000006,0.00000044,0.00000015,0.00000048,
 -0.00000040,-0.00000010,-0.00000004,-0.00000088,-0.00000099,0.00000127
 ,-0.00002331,-0.00000799,-0.00003747,0.,0.00000055,0.00000010,0.000000
 12,0.00000004,-0.00000029,0.00000026,-0.00000021,-0.00000021,0.0000004
 9,0.00000007,0.00000006,0.00000032,0.00000022,-0.00000018,0.00034189,0
 .00002338,-0.00044952,0.00001303,-0.00001550,0.00000081,-0.00000304,-0
 .00001204,-0.00001037,0.00000221,-0.00000730,0.00000511,-0.00000516,-0
 .00000607,0.00000314,0.00000710,0.00002047,0.00001040,0.00000411,-0.00
 000298,0.00000461,-0.00000073,-0.00000235,0.00000502,0.00000204,-0.000
 00033,0.00000282,-0.00407787,0.00449167,-0.00320778,0.01685289,-0.0166
 1558,0.01533357,-0.10979763,0.16963542,-0.00000052,0.00000009,0.000000
 74,-0.00000092,-0.00000029,0.00000010,-0.00000317,0.00000560,0.0000007
 8,0.00002241,0.00005194,-0.00003432,0.00000032,0.00000124,-0.00000155,
 0.01145920,-0.00863725,0.00669489,-0.00000364,0.00000269,-0.00000024,-
 0.00002161,0.00000537,-0.00000908,-0.00000056,0.00000527,-0.00000076,-
 0.00000055,0.00000075,-0.00000022,0.00000306,0.00000020,-0.00000022,0.
 00000244,0.00000169,-0.00000356,0.00000017,-0.00003797,0.00001836,-0.0
 0000018,-0.00000018,-0.00000158,0.00000057,0.00000146,-0.00000077,-0.0
 0000033,-0.00001028,-0.00000209,-0.00010387,0.00000504,-0.00001460,-0.
 00000044,-0.00000084,-0.00000144,0.00000102,-0.00000026,0.00000178,0.0
 0000033,0.00000091,0.00000063,0.00000027,0.00000001,0.00000092,0.00000
 022,-0.00000013,0.00000023,-0.00000125,-0.00000087,0.00000050,-0.00000
 006,0.00000018,0.00000021,-0.00002883,-0.00018519,0.00031596,-0.000000
 55,-0.00000194,0.00000151,0.00004809,0.00012784,-0.00011426,-0.0000006
 7,-0.00000004,0.00000005,-0.00000058,0.00000005,-0.00000001,-0.0000005
 7,0.00000013,0.00000007,-0.00000043,-0.00000004,-0.00000001,0.00000062
 ,0.00000012,-0.00000046,0.00019756,0.00059791,-0.00027568,0.00034022,-
 0.00020181,0.00042195,0.00000071,-0.00000018,-0.00000028,0.00248232,0.
 00034039,-0.00018518,-0.00000438,-0.00002460,0.00001730,0.00000528,-0.
 00000082,-0.00000442,-0.00000184,0.00000966,0.00000583,-0.08473967,0.0
 8995110,-0.11969595,-0.00000089,0.00000056,-0.00000021,-0.00000190,0.0
 0000198,-0.00000122,0.00000014,0.00000063,0.00000014,0.00000020,-0.000
 00030,-0.00000010,-0.00000022,0.00000037,-0.00000030,0.00000004,-0.000
 00006,0.00000011,0.00000025,0.00000017,-0.00000036,0.00000003,0.,-0.00
 000006,0.00000005,0.00000034,0.,-0.00000026,0.,-0.00000023,0.00000022,
 0.00000001,0.00000005,0.00000010,0.00000023,-0.00000036,0.00003269,-0.
 00004798,-0.00001352,0.00000015,-0.00000027,0.00000001,0.00000008,-0.0
 0000001,0.00000007,-0.00000011,0.00000006,0.00000009,-0.00000019,-0.00
 000002,-0.00000004,-0.00000014,-0.00000012,0.00000005,-0.00041055,-0.0
 0042124,-0.00001811,-0.00001507,0.00000912,-0.00001703,0.00000011,0.00
 000517,0.00002067,-0.00000088,0.00000527,-0.00000116,0.00000310,0.0000
 0421,-0.00000097,-0.00000520,-0.00000744,-0.00000654,-0.00000344,0.000
 00291,-0.00000439,0.00000102,0.00000095,-0.00000292,-0.00000141,-0.000
 00078,-0.00000047,-0.01766576,0.02038431,-0.01295637,0.00558856,-0.006
 02569,0.00506694,0.08282906,-0.09591932,0.12080106\\0.00000130,-0.0000
 0158,0.00000234,-0.00000026,0.00000088,0.00000076,0.00000084,-0.000003
 00,0.00000151,-0.00000127,0.00000201,-0.00000233,-0.00000014,0.0000001
 7,0.00000242,0.00000066,-0.00000124,-0.00000373,-0.00000517,-0.0000005
 8,0.00000422,-0.00000314,0.00000217,0.00000017,0.00000217,0.00000047,0
 .00000198,-0.00000168,0.00000305,0.00000189,0.00000465,0.00000471,0.00
 000664,0.00000291,-0.00000539,-0.00000412,0.00000155,0.00000210,-0.000
 00333,0.00000060,0.00000147,-0.00000057,-0.00000102,-0.00000030,0.0000
 0061,-0.00000098,-0.00000035,-0.00000334,0.00000140,0.00000096,-0.0000
 0347,-0.00000054,-0.00000182,0.00000047,0.00000004,-0.00000032,0.00000
 068,0.00000039,-0.00000108,0.00000148,-0.00000012,0.00000004,0.0000020
 0,0.00000083,-0.00000098,0.00000115,-0.00000058,0.00000104,0.00000102,
 -0.00000047,0.00000080,0.00000022,0.00000043,-0.00000300,0.00000221,-0
 .00000007,0.00000022,0.00000053,-0.00000122,-0.00000017,0.,0.00000137,
 -0.00000162,0.00000092,0.00000053,-0.00000053,0.00000230,-0.00000067,0
 .00000118,0.00000106,0.00000017,0.00000026,0.00000013,0.00000073,-0.00
 000060,0.00000175,-0.00000248,0.00000263,-0.00000339,0.00000110,-0.000
 00164,-0.00000258,-0.00000081,0.00000076,0.00000030,-0.00000054,-0.000
 00127,-0.00000143,0.00000013,0.00000091,-0.00000078,0.00000049,0.00000
 014,-0.00000092,-0.00000145,0.00000072,-0.00000049,-0.00000005,-0.0000
 0065,-0.00000292,-0.00000019,0.00000034,-0.00000028,-0.00000173,0.0000
 0144,0.00000108,0.00000088,-0.00000023,0.00000222,0.00000107,-0.000000
 94,0.00000099,-0.00000047,0.00000032,0.00000156,-0.00000010,0.00000070
 ,0.00000151,0.00000080,-0.00000107,-0.00000011,0.00000053,0.00000038,0
 .00000173,0.00000080,-0.00000096,0.00000136,0.00000063,-0.00000123,0.0
 0000060,-0.00000071,0.00000157,0.00000096,-0.00000007,-0.00000021,-0.0
 0000047,0.,-0.00000090,-0.00000215,0.00000089,-0.00000062,0.00000137,0
 .00000096,-0.00000145,0.00000103,0.00000059,-0.00000029,0.00000282,-0.
 00000070,0.00000153,0.00000119,0.,-0.00000002,-0.00000021,0.00000045,-
 0.00000002,-0.00000309,0.00000025,-0.00000108,-0.00000256,-0.00000015,
 -0.00000010,-0.00000119,-0.00000052,0.00000013,-0.00000045,-0.00000038
 ,0.00000108,-0.00000064,0.,-0.00000123,-0.00000132,-0.00000095,0.00000
 241,-0.00000059,-0.00000060,0.00000119,-0.00000032,-0.00000112,0.00000
 167,-0.00000060,-0.00000022,-0.00000064,-0.00000328,0.00000019,-0.0000
 0105,-0.00000282,0.00000024,-0.00000128,-0.00000366\\\@
 The archive entry for this job was punched.


 KNIGHT- SIRE, I'VE JUST RETURNED FROM THE FRONT
 KING-   HOW GOES THE BATTLE                    
 KNIGHT- THE SITUATION IS QUITE FLUID           
 KING-   WHAT DOES *THAT* MEAN                  
 KNIGHT- WE'RE UP THE CREEK                     
                THE WIZARD OF ID                
 Job cpu time:      10 days 14 hours 38 minutes 24.2 seconds.
 Elapsed time:       0 days  2 hours 22 minutes 14.3 seconds.
 File lengths (MBytes):  RWF=   7155 Int=      0 D2E=      0 Chk=    119 Scr=      1
 Normal termination of Gaussian 16 at Mon Mar  2 09:38:28 2026.
