SLURM_NODELIST orfoz228
NUMBER OF TASKS 1
NUMBER OF CORES=112
 Entering Gaussian System, Link 0=/arf/sw/apps/gaussian/avx/g16/g16
 Initial command:
 /arf/sw/apps/gaussian/avx/g16/l1.exe "/tmp/5347243/Gau-1442068.inp" -scrdir="/tmp/5347243/"
 Entering Link 1 = /arf/sw/apps/gaussian/avx/g16/l1.exe PID=   1442069.
  
 Copyright (c) 1988-2019, Gaussian, Inc.  All Rights Reserved.
  
 This is part of the Gaussian(R) 16 program.  It is based on
 the Gaussian(R) 09 system (copyright 2009, Gaussian, Inc.),
 the Gaussian(R) 03 system (copyright 2003, Gaussian, Inc.),
 the Gaussian(R) 98 system (copyright 1998, Gaussian, Inc.),
 the Gaussian(R) 94 system (copyright 1995, Gaussian, Inc.),
 the Gaussian 92(TM) system (copyright 1992, Gaussian, Inc.),
 the Gaussian 90(TM) system (copyright 1990, Gaussian, Inc.),
 the Gaussian 88(TM) system (copyright 1988, Gaussian, Inc.),
 the Gaussian 86(TM) system (copyright 1986, Carnegie Mellon
 University), and the Gaussian 82(TM) system (copyright 1983,
 Carnegie Mellon University). Gaussian is a federally registered
 trademark of Gaussian, Inc.
  
 This software contains proprietary and confidential information,
 including trade secrets, belonging to Gaussian, Inc.
  
 This software is provided under written license and may be
 used, copied, transmitted, or stored only in accord with that
 written license.
  
 The following legend is applicable only to US Government
 contracts under FAR:
  
                    RESTRICTED RIGHTS LEGEND
  
 Use, reproduction and disclosure by the US Government is
 subject to restrictions as set forth in subparagraphs (a)
 and (c) of the Commercial Computer Software - Restricted
 Rights clause in FAR 52.227-19.
  
 Gaussian, Inc.
 340 Quinnipiac St., Bldg. 40, Wallingford CT 06492
  
  
 ---------------------------------------------------------------
 Warning -- This program may not be used in any manner that
 competes with the business of Gaussian, Inc. or will provide
 assistance to any competitor of Gaussian, Inc.  The licensee
 of this program is prohibited from giving any competitor of
 Gaussian, Inc. access to this program.  By using this program,
 the user acknowledges that Gaussian, Inc. is engaged in the
 business of creating and licensing software in the field of
 computational chemistry and represents and warrants to the
 licensee that it is not a competitor of Gaussian, Inc. and that
 it will not use this program in any manner prohibited above.
 ---------------------------------------------------------------
  

 Cite this work as:
 Gaussian 16, Revision C.01,
 M. J. Frisch, G. W. Trucks, H. B. Schlegel, G. E. Scuseria, 
 M. A. Robb, J. R. Cheeseman, G. Scalmani, V. Barone, 
 G. A. Petersson, H. Nakatsuji, X. Li, M. Caricato, A. V. Marenich, 
 J. Bloino, B. G. Janesko, R. Gomperts, B. Mennucci, H. P. Hratchian, 
 J. V. Ortiz, A. F. Izmaylov, J. L. Sonnenberg, D. Williams-Young, 
 F. Ding, F. Lipparini, F. Egidi, J. Goings, B. Peng, A. Petrone, 
 T. Henderson, D. Ranasinghe, V. G. Zakrzewski, J. Gao, N. Rega, 
 G. Zheng, W. Liang, M. Hada, M. Ehara, K. Toyota, R. Fukuda, 
 J. Hasegawa, M. Ishida, T. Nakajima, Y. Honda, O. Kitao, H. Nakai, 
 T. Vreven, K. Throssell, J. A. Montgomery, Jr., J. E. Peralta, 
 F. Ogliaro, M. J. Bearpark, J. J. Heyd, E. N. Brothers, K. N. Kudin, 
 V. N. Staroverov, T. A. Keith, R. Kobayashi, J. Normand, 
 K. Raghavachari, A. P. Rendell, J. C. Burant, S. S. Iyengar, 
 J. Tomasi, M. Cossi, J. M. Millam, M. Klene, C. Adamo, R. Cammi, 
 J. W. Ochterski, R. L. Martin, K. Morokuma, O. Farkas, 
 J. B. Foresman, and D. J. Fox, Gaussian, Inc., Wallingford CT, 2019.
 
 ******************************************
 Gaussian 16:  ES64L-G16RevC.01  3-Jul-2019
                 2-Mar-2026 
 ******************************************
 %nprocshared=112
 Will use up to  112 processors via shared memory.
 %mem=10GB
 %chk=Aspirin.chk
 ----------------------------------------------------------------------
 # opt freq b3lyp/6-311++g(d,p) scrf=(pcm,solvent=water) geom=connectiv
 ity
 ----------------------------------------------------------------------
 1/18=20,19=15,26=3,38=1,57=2/1,3;
 2/9=110,12=2,17=6,18=5,40=1/2;
 3/5=4,6=6,7=1111,11=2,25=1,30=1,70=2201,71=1,72=1,74=-5/1,2,3;
 4//1;
 5/5=2,38=5,53=1/2;
 6/7=2,8=2,9=2,10=2,28=1/1;
 7//1,2,3,16;
 1/18=20,19=15,26=3/3(2);
 2/9=110/2;
 99//99;
 2/9=110/2;
 3/5=4,6=6,7=1111,11=2,25=1,30=1,70=2205,71=1,72=1,74=-5/1,2,3;
 4/5=5,16=3,69=1/1;
 5/5=2,38=5,53=1/2;
 7//1,2,3,16;
 1/18=20,19=15,26=3/3(-5);
 2/9=110/2;
 6/7=2,8=2,9=2,10=2,19=2,28=1/1;
 99/9=1/99;
 -------
 Aspirin
 -------
 Symbolic Z-matrix:
 Charge =  0 Multiplicity = 1
 O                     1.2333    0.554     0.7792 
 O                    -0.6952   -2.7148   -0.7502 
 O                     0.7958   -2.1843    0.8685 
 O                     1.7813    0.8105   -1.4821 
 C                    -0.0857    0.6088    0.4403 
 C                    -0.7927   -0.5515    0.1244 
 C                    -0.7288    1.8464    0.4133 
 C                    -2.1426   -0.4741   -0.2184 
 C                    -2.0787    1.9238    0.0706 
 C                    -2.7855    0.7636   -0.2453 
 C                    -0.1409   -1.8536    0.1477 
 C                     2.1094    0.6715   -0.3113 
 C                     3.5305    0.5996    0.1635 
 H                    -0.1851    2.7545    0.6593 
 H                    -2.7247   -1.3605   -0.4564 
 H                    -2.5797    2.8872    0.0506 
 H                    -3.8374    0.8238   -0.509 
 H                     3.729     1.4184    0.8593 
 H                     4.2045    0.6969   -0.6924 
 H                     3.7105   -0.3659    0.6426 
 H                    -0.2555   -3.5916   -0.7337 
 

 GradGradGradGradGradGradGradGradGradGradGradGradGradGradGradGradGradGrad
 Berny optimization.
 Initialization pass.
                           ----------------------------
                           !    Initial Parameters    !
                           ! (Angstroms and Degrees)  !
 --------------------------                            --------------------------
 ! Name  Definition              Value          Derivative Info.                !
 --------------------------------------------------------------------------------
 ! R1    R(1,5)                  1.3629         estimate D2E/DX2                !
 ! R2    R(1,12)                 1.4038         estimate D2E/DX2                !
 ! R3    R(2,11)                 1.362          estimate D2E/DX2                !
 ! R4    R(2,21)                 0.981          estimate D2E/DX2                !
 ! R5    R(3,11)                 1.2273         estimate D2E/DX2                !
 ! R6    R(4,12)                 1.2238         estimate D2E/DX2                !
 ! R7    R(5,6)                  1.395          estimate D2E/DX2                !
 ! R8    R(5,7)                  1.395          estimate D2E/DX2                !
 ! R9    R(6,8)                  1.3949         estimate D2E/DX2                !
 ! R10   R(6,11)                 1.4563         estimate D2E/DX2                !
 ! R11   R(7,9)                  1.3949         estimate D2E/DX2                !
 ! R12   R(7,14)                 1.0866         estimate D2E/DX2                !
 ! R13   R(8,10)                 1.395          estimate D2E/DX2                !
 ! R14   R(8,15)                 1.0868         estimate D2E/DX2                !
 ! R15   R(9,10)                 1.3948         estimate D2E/DX2                !
 ! R16   R(9,16)                 1.0861         estimate D2E/DX2                !
 ! R17   R(10,17)                1.0861         estimate D2E/DX2                !
 ! R18   R(12,13)                1.5            estimate D2E/DX2                !
 ! R19   R(13,18)                1.0927         estimate D2E/DX2                !
 ! R20   R(13,19)                1.0938         estimate D2E/DX2                !
 ! R21   R(13,20)                1.0928         estimate D2E/DX2                !
 ! A1    A(5,1,12)             114.0452         estimate D2E/DX2                !
 ! A2    A(11,2,21)            111.816          estimate D2E/DX2                !
 ! A3    A(1,5,6)              120.887          estimate D2E/DX2                !
 ! A4    A(1,5,7)              119.1194         estimate D2E/DX2                !
 ! A5    A(6,5,7)              119.9936         estimate D2E/DX2                !
 ! A6    A(5,6,8)              119.9981         estimate D2E/DX2                !
 ! A7    A(5,6,11)             120.8796         estimate D2E/DX2                !
 ! A8    A(8,6,11)             119.1223         estimate D2E/DX2                !
 ! A9    A(5,7,9)              120.0088         estimate D2E/DX2                !
 ! A10   A(5,7,14)             120.4223         estimate D2E/DX2                !
 ! A11   A(9,7,14)             119.5689         estimate D2E/DX2                !
 ! A12   A(6,8,10)             119.9983         estimate D2E/DX2                !
 ! A13   A(6,8,15)             121.795          estimate D2E/DX2                !
 ! A14   A(10,8,15)            118.2014         estimate D2E/DX2                !
 ! A15   A(7,9,10)             119.9931         estimate D2E/DX2                !
 ! A16   A(7,9,16)             120.0114         estimate D2E/DX2                !
 ! A17   A(10,9,16)            119.9955         estimate D2E/DX2                !
 ! A18   A(8,10,9)             120.0081         estimate D2E/DX2                !
 ! A19   A(8,10,17)            120.0138         estimate D2E/DX2                !
 ! A20   A(9,10,17)            119.9778         estimate D2E/DX2                !
 ! A21   A(2,11,3)             121.8295         estimate D2E/DX2                !
 ! A22   A(2,11,6)             111.8787         estimate D2E/DX2                !
 ! A23   A(3,11,6)             126.2918         estimate D2E/DX2                !
 ! A24   A(1,12,4)             125.8292         estimate D2E/DX2                !
 ! A25   A(1,12,13)            109.9599         estimate D2E/DX2                !
 ! A26   A(4,12,13)            124.2108         estimate D2E/DX2                !
 ! A27   A(12,13,18)           109.7392         estimate D2E/DX2                !
 ! A28   A(12,13,19)           109.3805         estimate D2E/DX2                !
 ! A29   A(12,13,20)           109.7049         estimate D2E/DX2                !
 ! A30   A(18,13,19)           108.6443         estimate D2E/DX2                !
 ! A31   A(18,13,20)           110.6691         estimate D2E/DX2                !
 ! A32   A(19,13,20)           108.6738         estimate D2E/DX2                !
 ! D1    D(12,1,5,6)            90.0619         estimate D2E/DX2                !
 ! D2    D(12,1,5,7)           -90.0103         estimate D2E/DX2                !
 ! D3    D(5,1,12,4)            -0.0992         estimate D2E/DX2                !
 ! D4    D(5,1,12,13)         -179.9988         estimate D2E/DX2                !
 ! D5    D(21,2,11,3)           -0.002          estimate D2E/DX2                !
 ! D6    D(21,2,11,6)         -179.9968         estimate D2E/DX2                !
 ! D7    D(1,5,6,8)            179.9255         estimate D2E/DX2                !
 ! D8    D(1,5,6,11)            -0.013          estimate D2E/DX2                !
 ! D9    D(7,5,6,8)             -0.0017         estimate D2E/DX2                !
 ! D10   D(7,5,6,11)          -179.9402         estimate D2E/DX2                !
 ! D11   D(1,5,7,9)           -179.9222         estimate D2E/DX2                !
 ! D12   D(1,5,7,14)            -0.0032         estimate D2E/DX2                !
 ! D13   D(6,5,7,9)              0.0062         estimate D2E/DX2                !
 ! D14   D(6,5,7,14)           179.9252         estimate D2E/DX2                !
 ! D15   D(5,6,8,10)             0.0            estimate D2E/DX2                !
 ! D16   D(5,6,8,15)          -179.1488         estimate D2E/DX2                !
 ! D17   D(11,6,8,10)          179.9396         estimate D2E/DX2                !
 ! D18   D(11,6,8,15)            0.7908         estimate D2E/DX2                !
 ! D19   D(5,6,11,2)          -150.0698         estimate D2E/DX2                !
 ! D20   D(5,6,11,3)            29.9357         estimate D2E/DX2                !
 ! D21   D(8,6,11,2)            29.9912         estimate D2E/DX2                !
 ! D22   D(8,6,11,3)          -150.0033         estimate D2E/DX2                !
 ! D23   D(5,7,9,10)            -0.0091         estimate D2E/DX2                !
 ! D24   D(5,7,9,16)           179.9345         estimate D2E/DX2                !
 ! D25   D(14,7,9,10)         -179.9288         estimate D2E/DX2                !
 ! D26   D(14,7,9,16)            0.0148         estimate D2E/DX2                !
 ! D27   D(6,8,10,9)            -0.0029         estimate D2E/DX2                !
 ! D28   D(6,8,10,17)         -179.7986         estimate D2E/DX2                !
 ! D29   D(15,8,10,9)          179.1762         estimate D2E/DX2                !
 ! D30   D(15,8,10,17)          -0.6195         estimate D2E/DX2                !
 ! D31   D(7,9,10,8)             0.0075         estimate D2E/DX2                !
 ! D32   D(7,9,10,17)          179.8032         estimate D2E/DX2                !
 ! D33   D(16,9,10,8)         -179.9362         estimate D2E/DX2                !
 ! D34   D(16,9,10,17)          -0.1404         estimate D2E/DX2                !
 ! D35   D(1,12,13,18)         -60.6325         estimate D2E/DX2                !
 ! D36   D(1,12,13,19)        -179.7286         estimate D2E/DX2                !
 ! D37   D(1,12,13,20)          61.1599         estimate D2E/DX2                !
 ! D38   D(4,12,13,18)         119.466          estimate D2E/DX2                !
 ! D39   D(4,12,13,19)           0.3698         estimate D2E/DX2                !
 ! D40   D(4,12,13,20)        -118.7417         estimate D2E/DX2                !
 --------------------------------------------------------------------------------
 Trust Radius=3.00D-01 FncErr=1.00D-07 GrdErr=1.00D-06 EigMax=2.50D+02 EigMin=1.00D-04
 Number of steps in this run=    103 maximum allowed number of steps=    126.
 GradGradGradGradGradGradGradGradGradGradGradGradGradGradGradGradGradGrad

                          Input orientation:                          
 ---------------------------------------------------------------------
 Center     Atomic      Atomic             Coordinates (Angstroms)
 Number     Number       Type             X           Y           Z
 ---------------------------------------------------------------------
      1          8           0        1.233300    0.554000    0.779200
      2          8           0       -0.695200   -2.714800   -0.750200
      3          8           0        0.795800   -2.184300    0.868500
      4          8           0        1.781300    0.810500   -1.482100
      5          6           0       -0.085700    0.608800    0.440300
      6          6           0       -0.792700   -0.551500    0.124400
      7          6           0       -0.728800    1.846400    0.413300
      8          6           0       -2.142600   -0.474100   -0.218400
      9          6           0       -2.078700    1.923800    0.070600
     10          6           0       -2.785500    0.763600   -0.245300
     11          6           0       -0.140900   -1.853600    0.147700
     12          6           0        2.109400    0.671500   -0.311300
     13          6           0        3.530500    0.599600    0.163500
     14          1           0       -0.185100    2.754500    0.659300
     15          1           0       -2.724700   -1.360500   -0.456400
     16          1           0       -2.579700    2.887200    0.050600
     17          1           0       -3.837400    0.823800   -0.509000
     18          1           0        3.729000    1.418400    0.859300
     19          1           0        4.204500    0.696900   -0.692400
     20          1           0        3.710500   -0.365900    0.642600
     21          1           0       -0.255500   -3.591600   -0.733700
 ---------------------------------------------------------------------
                    Distance matrix (angstroms):
                    1          2          3          4          5
     1  O    0.000000
     2  O    4.091849   0.000000
     3  O    2.774467   2.263780   0.000000
     4  O    2.340849   4.369951   3.932602   0.000000
     5  C    1.362944   3.582610   2.960035   2.687377   0.000000
     6  C    2.399077   2.335444   2.396467   3.325863   1.394969
     7  C    2.377818   4.707378   4.333377   3.311530   1.394977
     8  C    3.667274   2.720021   3.569360   4.317884   2.416070
     9  C    3.653465   4.909623   5.076995   4.306961   2.416185
    10  C    4.152624   4.089443   4.770364   4.731547   2.789790
    11  C    2.843195   1.362035   1.227323   3.667224   2.480338
    12  C    1.403762   4.418760   3.357539   1.223823   2.321055
    13  C    2.378717   5.447627   3.965565   2.410846   3.626790
    14  H    2.620770   5.670991   5.039611   3.497350   2.159136
    15  H    4.567032   2.457502   3.850705   5.105814   3.412702
    16  H    4.529200   5.964480   6.146794   5.067561   3.400442
    17  H    5.238726   4.738490   5.693216   5.702358   3.875906
    18  H    2.642371   6.264773   4.645772   3.105677   3.922110
    19  H    3.318743   5.970770   4.728314   2.551162   4.438084
    20  H    2.646015   5.183379   3.442831   3.101625   3.924551
    21  H    4.657402   0.981013   2.377555   4.907865   4.364684
                    6          7          8          9         10
     6  C    0.000000
     7  C    2.416086   0.000000
     8  C    1.394895   2.789730   0.000000
     9  C    2.789946   1.394871   2.416098   0.000000
    10  C    2.416075   2.415828   1.394971   1.394784   0.000000
    11  C    1.456314   3.755818   2.458425   4.246147   3.741403
    12  C    3.179268   3.156076   4.404604   4.387970   4.896211
    13  C    4.473994   4.445059   5.786427   5.764136   6.331340
    14  H    3.403664   1.086633   3.876341   2.149965   3.397656
    15  H    2.173576   3.876107   1.086825   3.388462   2.135430
    16  H    3.876013   2.154216   3.400258   1.086067   2.153970
    17  H    3.400418   3.399962   2.154377   2.153825   1.086119
    18  H    4.986618   4.500453   6.262482   5.882759   6.639850
    19  H    5.215139   5.184725   6.471599   6.447174   7.004602
    20  H    4.536716   4.965303   5.917078   6.251779   6.652981
    21  H    3.204236   5.577765   3.680419   5.864349   5.060356
                   11         12         13         14         15
    11  C    0.000000
    12  C    3.413306   0.000000
    13  C    4.415611   1.500043   0.000000
    14  H    4.636623   3.247412   4.323782   0.000000
    15  H    2.698908   5.245817   6.584360   4.962618   0.000000
    16  H    5.332200   5.198842   6.525366   2.474315   4.280307
    17  H    4.611273   5.952034   7.401924   4.293230   2.451945
    18  H    5.117469   2.133370   1.092691   4.140693   7.148678
    19  H    5.108162   2.129631   1.093759   5.032832   7.232040
    20  H    4.158300   2.132990   1.092761   4.991280   6.603698
    21  H    1.952087   4.893383   5.718822   6.497568   3.339409
                   16         17         18         19         20
    16  H    0.000000
    17  H    2.480440   0.000000
    18  H    6.527715   7.712082   0.000000
    19  H    7.167624   8.044992   1.776073   0.000000
    20  H    7.106317   7.727378   1.797506   1.776459   0.000000
    21  H    6.927617   5.690014   6.596513   6.187450   5.294195
                   21
    21  H    0.000000
 Stoichiometry    C9H8O4
 Framework group  C1[X(C9H8O4)]
 Deg. of freedom    57
 Full point group                 C1      NOp   1
 Largest Abelian subgroup         C1      NOp   1
 Largest concise Abelian subgroup C1      NOp   1
                         Standard orientation:                         
 ---------------------------------------------------------------------
 Center     Atomic      Atomic             Coordinates (Angstroms)
 Number     Number       Type             X           Y           Z
 ---------------------------------------------------------------------
      1          8           0        1.185751   -0.556409   -0.760743
      2          8           0       -0.921175    2.649293    0.663184
      3          8           0        0.621838    2.155592   -0.917977
      4          8           0        1.704605   -0.738454    1.514609
      5          6           0       -0.135079   -0.666342   -0.443033
      6          6           0       -0.901320    0.465663   -0.164863
      7          6           0       -0.719743   -1.932136   -0.399521
      8          6           0       -2.252020    0.331780    0.156724
      9          6           0       -2.070441   -2.066020   -0.078034
     10          6           0       -2.836478   -0.934106    0.200142
     11          6           0       -0.311061    1.796360   -0.205956
     12          6           0        2.046732   -0.609054    0.346727
     13          6           0        3.471164   -0.480107   -0.105486
     14          1           0       -0.129689   -2.818520   -0.616155
     15          1           0       -2.879264    1.194506    0.365193
     16          1           0       -2.525934   -3.051407   -0.045187
     17          1           0       -3.888945   -1.038392    0.447310
     18          1           0        3.720317   -1.303231   -0.779549
     19          1           0        4.133552   -0.527143    0.763616
     20          1           0        3.614185    0.482405   -0.602721
     21          1           0       -0.522901    3.545370    0.634716
 ---------------------------------------------------------------------
 Rotational constants (GHZ):           1.0677498           0.7645073           0.5150616
 Standard basis: 6-311++G(d,p) (5D, 7F)
 There are   355 symmetry adapted cartesian basis functions of A   symmetry.
 There are   342 symmetry adapted basis functions of A   symmetry.
   342 basis functions,   540 primitive gaussians,   355 cartesian basis functions
    47 alpha electrons       47 beta electrons
       nuclear repulsion energy       782.1604877302 Hartrees.
 NAtoms=   21 NActive=   21 NUniq=   21 SFac= 1.00D+00 NAtFMM=   60 NAOKFM=F Big=F
 Integral buffers will be    131072 words long.
 Raffenetti 2 integral format.
 Two-electron integral symmetry is turned on.
 ------------------------------------------------------------------------------
 Polarizable Continuum Model (PCM)
 =================================
 Model                : PCM.
 Atomic radii         : UFF (Universal Force Field).
 Polarization charges : Total charges.
 Charge compensation  : None.
 Solution method      : On-the-fly selection.
 Cavity type          : Scaled VdW (van der Waals Surface) (Alpha=1.100).
 Cavity algorithm     : GePol (No added spheres)
                        Default sphere list used, NSphG=   21.
                        Lebedev-Laikov grids with approx.  5.0 points / Ang**2.
                        Smoothing algorithm: York/Karplus (Gamma=1.0000).
                        Polarization charges: spherical gaussians, with
                                              point-specific exponents (IZeta= 3).
                        Self-potential: point-specific (ISelfS= 7).
                        Self-field    : sphere-specific E.n sum rule (ISelfD= 2).
 1st derivatives      : Analytical E(r).r(x)/FMM algorithm (CHGder, D1EAlg=3).
                        Cavity 1st derivative terms included.
 Solvent              : Water, Eps=  78.355300 Eps(inf)=   1.777849
 ------------------------------------------------------------------------------
 One-electron integrals computed using PRISM.
 NBasis=   342 RedAO= T EigKep=  2.69D-06  NBF=   342
 NBsUse=   341 1.00D-06 EigRej=  7.12D-07 NBFU=   341
 ExpMin= 3.60D-02 ExpMax= 8.59D+03 ExpMxC= 1.30D+03 IAcc=3 IRadAn=         5 AccDes= 0.00D+00
 Harris functional with IExCor=  402 and IRadAn=       5 diagonalized for initial guess.
 HarFok:  IExCor=  402 AccDes= 0.00D+00 IRadAn=         5 IDoV= 1 UseB2=F ITyADJ=14
 ICtDFT=  3500011 ScaDFX=  1.000000  1.000000  1.000000  1.000000
 FoFCou: FMM=F IPFlag=           0 FMFlag=      100000 FMFlg1=           0
         NFxFlg=           0 DoJE=T BraDBF=F KetDBF=T FulRan=T
         wScrn=  0.000000 ICntrl=       500 IOpCl=  0 I1Cent=   200000004 NGrid=           0
         NMat0=    1 NMatS0=      1 NMatT0=    0 NMatD0=    1 NMtDS0=    0 NMtDT0=    0
 Petite list used in FoFCou.
 Requested convergence on RMS density matrix=1.00D-08 within 128 cycles.
 Requested convergence on MAX density matrix=1.00D-06.
 Requested convergence on             energy=1.00D-06.
 No special actions if energy rises.
 Inv3:  Mode=1 IEnd=    10013787.
 Iteration    1 A*A^-1 deviation from unit magnitude is 4.88D-15 for   1820.
 Iteration    1 A*A^-1 deviation from orthogonality  is 1.61D-15 for   1809    419.
 Iteration    1 A^-1*A deviation from unit magnitude is 4.66D-15 for   1820.
 Iteration    1 A^-1*A deviation from orthogonality  is 4.84D-15 for   1253   1228.
 Error on total polarization charges =  0.01373
 SCF Done:  E(RB3LYP) =  -648.892037443     A.U. after   15 cycles
            NFock= 15  Conv=0.27D-08     -V/T= 2.0040

 **********************************************************************

            Population analysis using the SCF Density.

 **********************************************************************

 Orbital symmetries:
       Occupied  (A) (A) (A) (A) (A) (A) (A) (A) (A) (A) (A) (A)
                 (A) (A) (A) (A) (A) (A) (A) (A) (A) (A) (A) (A)
                 (A) (A) (A) (A) (A) (A) (A) (A) (A) (A) (A) (A)
                 (A) (A) (A) (A) (A) (A) (A) (A) (A) (A) (A)
       Virtual   (A) (A) (A) (A) (A) (A) (A) (A) (A) (A) (A) (A)
                 (A) (A) (A) (A) (A) (A) (A) (A) (A) (A) (A) (A)
                 (A) (A) (A) (A) (A) (A) (A) (A) (A) (A) (A) (A)
                 (A) (A) (A) (A) (A) (A) (A) (A) (A) (A) (A) (A)
                 (A) (A) (A) (A) (A) (A) (A) (A) (A) (A) (A) (A)
                 (A) (A) (A) (A) (A) (A) (A) (A) (A) (A) (A) (A)
                 (A) (A) (A) (A) (A) (A) (A) (A) (A) (A) (A) (A)
                 (A) (A) (A) (A) (A) (A) (A) (A) (A) (A) (A) (A)
                 (A) (A) (A) (A) (A) (A) (A) (A) (A) (A) (A) (A)
                 (A) (A) (A) (A) (A) (A) (A) (A) (A) (A) (A) (A)
                 (A) (A) (A) (A) (A) (A) (A) (A) (A) (A) (A) (A)
                 (A) (A) (A) (A) (A) (A) (A) (A) (A) (A) (A) (A)
                 (A) (A) (A) (A) (A) (A) (A) (A) (A) (A) (A) (A)
                 (A) (A) (A) (A) (A) (A) (A) (A) (A) (A) (A) (A)
                 (A) (A) (A) (A) (A) (A) (A) (A) (A) (A) (A) (A)
                 (A) (A) (A) (A) (A) (A) (A) (A) (A) (A) (A) (A)
                 (A) (A) (A) (A) (A) (A) (A) (A) (A) (A) (A) (A)
                 (A) (A) (A) (A) (A) (A) (A) (A) (A) (A) (A) (A)
                 (A) (A) (A) (A) (A) (A) (A) (A) (A) (A) (A) (A)
                 (A) (A) (A) (A) (A) (A) (A) (A) (A) (A) (A) (A)
                 (A) (A) (A) (A) (A) (A) (A) (A) (A) (A) (A) (A)
                 (A) (A) (A) (A) (A) (A) (A) (A) (A) (A) (A) (A)
                 (A) (A) (A) (A) (A) (A) (A) (A) (A) (A) (A) (A)
                 (A) (A) (A) (A) (A) (A) (A) (A) (A) (A) (A) (A)
                 (A) (A) (A) (A) (A) (A)
 The electronic state is 1-A.
 Alpha  occ. eigenvalues --  -19.19764 -19.18305 -19.14402 -19.13083 -10.33491
 Alpha  occ. eigenvalues --  -10.32869 -10.26368 -10.21203 -10.20260 -10.20039
 Alpha  occ. eigenvalues --  -10.19765 -10.19337 -10.18792  -1.13490  -1.11774
 Alpha  occ. eigenvalues --   -1.05395  -1.03024  -0.88732  -0.79831  -0.79075
 Alpha  occ. eigenvalues --   -0.75164  -0.68848  -0.65301  -0.63338  -0.58602
 Alpha  occ. eigenvalues --   -0.54527  -0.51759  -0.51292  -0.50885  -0.50018
 Alpha  occ. eigenvalues --   -0.48163  -0.46845  -0.46267  -0.45612  -0.42963
 Alpha  occ. eigenvalues --   -0.41886  -0.41538  -0.40337  -0.39028  -0.38261
 Alpha  occ. eigenvalues --   -0.37951  -0.34450  -0.34007  -0.30967  -0.29931
 Alpha  occ. eigenvalues --   -0.28253  -0.27351
 Alpha virt. eigenvalues --   -0.07168  -0.03584  -0.02919  -0.01038   0.00262
 Alpha virt. eigenvalues --    0.00436   0.01636   0.02236   0.03103   0.03395
 Alpha virt. eigenvalues --    0.03765   0.04737   0.05277   0.05658   0.06424
 Alpha virt. eigenvalues --    0.07128   0.07572   0.08668   0.09221   0.09534
 Alpha virt. eigenvalues --    0.10050   0.10584   0.10708   0.10825   0.11456
 Alpha virt. eigenvalues --    0.11983   0.12276   0.12782   0.13047   0.13435
 Alpha virt. eigenvalues --    0.13948   0.14371   0.14795   0.15415   0.15848
 Alpha virt. eigenvalues --    0.16570   0.16984   0.17648   0.17880   0.18205
 Alpha virt. eigenvalues --    0.18580   0.19204   0.19512   0.20247   0.20615
 Alpha virt. eigenvalues --    0.21140   0.21790   0.22407   0.22715   0.23493
 Alpha virt. eigenvalues --    0.24556   0.24574   0.25312   0.25850   0.26052
 Alpha virt. eigenvalues --    0.26447   0.26970   0.27552   0.28137   0.28840
 Alpha virt. eigenvalues --    0.29551   0.29832   0.30787   0.31590   0.31936
 Alpha virt. eigenvalues --    0.32160   0.32598   0.33230   0.34102   0.34495
 Alpha virt. eigenvalues --    0.35471   0.35610   0.37111   0.37387   0.38327
 Alpha virt. eigenvalues --    0.39126   0.39405   0.39820   0.41545   0.42276
 Alpha virt. eigenvalues --    0.44089   0.46305   0.47527   0.49545   0.50447
 Alpha virt. eigenvalues --    0.51435   0.53108   0.53471   0.54306   0.55943
 Alpha virt. eigenvalues --    0.56147   0.56404   0.57139   0.57971   0.59090
 Alpha virt. eigenvalues --    0.61231   0.61947   0.63277   0.64402   0.64475
 Alpha virt. eigenvalues --    0.64820   0.65367   0.67145   0.67869   0.69933
 Alpha virt. eigenvalues --    0.70567   0.71622   0.72131   0.73046   0.74815
 Alpha virt. eigenvalues --    0.75736   0.76574   0.78250   0.80989   0.82762
 Alpha virt. eigenvalues --    0.83962   0.85145   0.85714   0.86280   0.88061
 Alpha virt. eigenvalues --    0.88510   0.90033   0.91397   0.93149   0.97173
 Alpha virt. eigenvalues --    0.98867   1.00381   1.01348   1.04098   1.04789
 Alpha virt. eigenvalues --    1.06833   1.08295   1.09846   1.11538   1.12588
 Alpha virt. eigenvalues --    1.14484   1.15079   1.16618   1.17484   1.18657
 Alpha virt. eigenvalues --    1.20955   1.21727   1.22885   1.23909   1.25324
 Alpha virt. eigenvalues --    1.27774   1.30147   1.32366   1.33616   1.37256
 Alpha virt. eigenvalues --    1.40340   1.43977   1.44137   1.46407   1.47855
 Alpha virt. eigenvalues --    1.50319   1.51174   1.51641   1.52287   1.54722
 Alpha virt. eigenvalues --    1.55192   1.55887   1.56262   1.57202   1.58182
 Alpha virt. eigenvalues --    1.59684   1.62409   1.63616   1.66353   1.67212
 Alpha virt. eigenvalues --    1.68425   1.72574   1.73273   1.75873   1.76441
 Alpha virt. eigenvalues --    1.76897   1.79894   1.83395   1.84684   1.86182
 Alpha virt. eigenvalues --    1.88191   1.89535   1.90041   1.90645   1.92447
 Alpha virt. eigenvalues --    1.94622   1.95488   1.95928   1.99837   2.01626
 Alpha virt. eigenvalues --    2.03553   2.04252   2.06470   2.08007   2.12873
 Alpha virt. eigenvalues --    2.13314   2.20354   2.24183   2.25282   2.27916
 Alpha virt. eigenvalues --    2.32570   2.32656   2.41251   2.44711   2.46285
 Alpha virt. eigenvalues --    2.47184   2.50349   2.55499   2.55829   2.57907
 Alpha virt. eigenvalues --    2.58562   2.61035   2.62553   2.65304   2.67318
 Alpha virt. eigenvalues --    2.68383   2.70374   2.72907   2.73906   2.74093
 Alpha virt. eigenvalues --    2.76700   2.77300   2.78884   2.79486   2.83730
 Alpha virt. eigenvalues --    2.84986   2.86195   2.87997   2.89358   2.92237
 Alpha virt. eigenvalues --    2.92651   2.93917   2.97020   3.01428   3.04915
 Alpha virt. eigenvalues --    3.07289   3.09011   3.10331   3.14878   3.17026
 Alpha virt. eigenvalues --    3.18294   3.19062   3.22859   3.25512   3.30646
 Alpha virt. eigenvalues --    3.33068   3.36287   3.37947   3.40294   3.49019
 Alpha virt. eigenvalues --    3.50940   3.53744   3.56206   3.60112   3.63009
 Alpha virt. eigenvalues --    3.69378   3.77169   3.81418   3.83250   3.84756
 Alpha virt. eigenvalues --    4.01946   4.03023   4.04947   4.06278   4.15981
 Alpha virt. eigenvalues --    4.16229   4.19774   4.30025   4.82644   4.99155
 Alpha virt. eigenvalues --    5.04870   5.07745   5.12858   5.18072   5.20058
 Alpha virt. eigenvalues --    5.36026   5.37513   5.58417   5.69005   5.83752
 Alpha virt. eigenvalues --    5.85340  23.56880  23.77458  23.82697  23.92607
 Alpha virt. eigenvalues --   23.94387  23.95095  24.05069  24.06764  24.16510
 Alpha virt. eigenvalues --   49.85287  49.93715  49.95432  49.99137
          Condensed to atoms (all electrons):
               1          2          3          4          5          6
     1  O    8.354645  -0.006184  -0.012698  -0.164789   0.474578  -0.130367
     2  O   -0.006184   8.009179  -0.112986   0.001137   0.052691  -0.338944
     3  O   -0.012698  -0.112986   8.090127  -0.001418   0.033076  -0.170880
     4  O   -0.164789   0.001137  -0.001418   7.925408   0.207140  -0.033181
     5  C    0.474578   0.052691   0.033076   0.207140  15.749755  -3.429645
     6  C   -0.130367  -0.338944  -0.170880  -0.033181  -3.429645  15.543770
     7  C   -0.207686   0.010955   0.031129  -0.062442   0.320715  -3.775906
     8  C    0.001393   0.043143   0.040981  -0.027460  -6.044535   0.552915
     9  C    0.013201   0.002616  -0.000329  -0.038805  -0.882959   0.153834
    10  C   -0.012524   0.044748   0.018949   0.017316   0.718342  -0.511685
    11  C   -0.119685   0.250487   0.403428  -0.042129  -0.332197  -2.863537
    12  C    0.087014  -0.009599   0.034501   0.466987   0.090938  -0.024160
    13  C   -0.309288  -0.000825  -0.014776  -0.010220  -0.023313   0.178810
    14  H   -0.009417   0.000182   0.000254   0.001123  -0.114259  -0.024394
    15  H    0.000213  -0.019081   0.000163  -0.000286   0.030792   0.053051
    16  H    0.000339  -0.000089  -0.000003  -0.000947   0.006423   0.052719
    17  H    0.000657   0.000632   0.000012   0.000186  -0.002793  -0.005345
    18  H    0.001691   0.000050  -0.000094   0.003974  -0.009720  -0.027946
    19  H    0.016293   0.000101   0.000381  -0.010150   0.005417   0.001639
    20  H    0.001107   0.000169   0.002898   0.003896  -0.026443   0.022911
    21  H   -0.000190   0.247336  -0.017877  -0.000527  -0.004526  -0.108943
               7          8          9         10         11         12
     1  O   -0.207686   0.001393   0.013201  -0.012524  -0.119685   0.087014
     2  O    0.010955   0.043143   0.002616   0.044748   0.250487  -0.009599
     3  O    0.031129   0.040981  -0.000329   0.018949   0.403428   0.034501
     4  O   -0.062442  -0.027460  -0.038805   0.017316  -0.042129   0.466987
     5  C    0.320715  -6.044535  -0.882959   0.718342  -0.332197   0.090938
     6  C   -3.775906   0.552915   0.153834  -0.511685  -2.863537  -0.024160
     7  C    9.309679  -0.056799   0.580798  -0.238356  -0.330500   0.048880
     8  C   -0.056799  12.769096  -0.400517  -0.487137  -0.749532   0.009698
     9  C    0.580798  -0.400517   6.149880   0.307330   0.108845  -0.085231
    10  C   -0.238356  -0.487137   0.307330   6.400196  -0.186849   0.112171
    11  C   -0.330500  -0.749532   0.108845  -0.186849  10.210130  -0.384989
    12  C    0.048880   0.009698  -0.085231   0.112171  -0.384989   5.949324
    13  C   -0.141864   0.019674  -0.035482   0.023360  -0.047670  -0.198196
    14  H    0.495940   0.036321  -0.058836   0.006558  -0.019901   0.000969
    15  H    0.022733   0.351012   0.009406  -0.095999  -0.047980  -0.005714
    16  H   -0.075708  -0.019589   0.441374  -0.073294  -0.003031  -0.004031
    17  H    0.002462  -0.044724  -0.042587   0.425506   0.006069   0.002295
    18  H    0.030490  -0.004256   0.003628   0.000205   0.000929  -0.004499
    19  H   -0.000411   0.000101  -0.001747   0.001010  -0.006755  -0.049339
    20  H   -0.012944   0.007110  -0.000224  -0.000870  -0.000210  -0.042942
    21  H    0.004165  -0.012382  -0.002457  -0.009576   0.154901  -0.005097
              13         14         15         16         17         18
     1  O   -0.309288  -0.009417   0.000213   0.000339   0.000657   0.001691
     2  O   -0.000825   0.000182  -0.019081  -0.000089   0.000632   0.000050
     3  O   -0.014776   0.000254   0.000163  -0.000003   0.000012  -0.000094
     4  O   -0.010220   0.001123  -0.000286  -0.000947   0.000186   0.003974
     5  C   -0.023313  -0.114259   0.030792   0.006423  -0.002793  -0.009720
     6  C    0.178810  -0.024394   0.053051   0.052719  -0.005345  -0.027946
     7  C   -0.141864   0.495940   0.022733  -0.075708   0.002462   0.030490
     8  C    0.019674   0.036321   0.351012  -0.019589  -0.044724  -0.004256
     9  C   -0.035482  -0.058836   0.009406   0.441374  -0.042587   0.003628
    10  C    0.023360   0.006558  -0.095999  -0.073294   0.425506   0.000205
    11  C   -0.047670  -0.019901  -0.047980  -0.003031   0.006069   0.000929
    12  C   -0.198196   0.000969  -0.005714  -0.004031   0.002295  -0.004499
    13  C    5.880555  -0.000217  -0.001328  -0.002136   0.000705   0.357563
    14  H   -0.000217   0.481092   0.001052  -0.011648   0.000099  -0.000765
    15  H   -0.001328   0.001052   0.478055   0.000475  -0.012813   0.000021
    16  H   -0.002136  -0.011648   0.000475   0.486021  -0.011113   0.000067
    17  H    0.000705   0.000099  -0.012813  -0.011113   0.483454  -0.000014
    18  H    0.357563  -0.000765   0.000021   0.000067  -0.000014   0.512357
    19  H    0.415340   0.000281   0.000001  -0.000024   0.000014  -0.023799
    20  H    0.400121   0.000348  -0.000143   0.000000   0.000014  -0.032684
    21  H   -0.000531  -0.000011  -0.000274  -0.000069   0.000066   0.000036
              19         20         21
     1  O    0.016293   0.001107  -0.000190
     2  O    0.000101   0.000169   0.247336
     3  O    0.000381   0.002898  -0.017877
     4  O   -0.010150   0.003896  -0.000527
     5  C    0.005417  -0.026443  -0.004526
     6  C    0.001639   0.022911  -0.108943
     7  C   -0.000411  -0.012944   0.004165
     8  C    0.000101   0.007110  -0.012382
     9  C   -0.001747  -0.000224  -0.002457
    10  C    0.001010  -0.000870  -0.009576
    11  C   -0.006755  -0.000210   0.154901
    12  C   -0.049339  -0.042942  -0.005097
    13  C    0.415340   0.400121  -0.000531
    14  H    0.000281   0.000348  -0.000011
    15  H    0.000001  -0.000143  -0.000274
    16  H   -0.000024   0.000000  -0.000069
    17  H    0.000014   0.000014   0.000066
    18  H   -0.023799  -0.032684   0.000036
    19  H    0.496973  -0.027335  -0.000069
    20  H   -0.027335   0.515618   0.000112
    21  H   -0.000069   0.000112   0.435669
 Mulliken charges:
               1
     1  O    0.021697
     2  O   -0.175718
     3  O   -0.324839
     4  O   -0.234812
     5  C   -0.819478
     6  C    0.885285
     7  C    0.044669
     8  C    0.015488
     9  C   -0.221738
    10  C   -0.459404
    11  C    0.000176
    12  C    0.011020
    13  C   -0.490282
    14  H    0.215232
    15  H    0.236643
    16  H    0.214265
    17  H    0.197218
    18  H    0.192765
    19  H    0.182079
    20  H    0.189489
    21  H    0.320245
 Sum of Mulliken charges =  -0.00000
 Mulliken charges with hydrogens summed into heavy atoms:
               1
     1  O    0.021697
     2  O    0.144527
     3  O   -0.324839
     4  O   -0.234812
     5  C   -0.819478
     6  C    0.885285
     7  C    0.259902
     8  C    0.252131
     9  C   -0.007473
    10  C   -0.262185
    11  C    0.000176
    12  C    0.011020
    13  C    0.074051
 Electronic spatial extent (au):  <R**2>=           2239.5256
 Charge=             -0.0000 electrons
 Dipole moment (field-independent basis, Debye):
    X=             -1.5207    Y=             -1.2223    Z=             -0.5582  Tot=              2.0293
 Quadrupole moment (field-independent basis, Debye-Ang):
   XX=            -58.7974   YY=            -61.9442   ZZ=            -85.4896
   XY=             -1.0530   XZ=             -2.2939   YZ=              7.1191
 Traceless Quadrupole moment (field-independent basis, Debye-Ang):
   XX=              9.9464   YY=              6.7995   ZZ=            -16.7459
   XY=             -1.0530   XZ=             -2.2939   YZ=              7.1191
 Octapole moment (field-independent basis, Debye-Ang**2):
  XXX=             23.1690  YYY=             28.3928  ZZZ=             -4.3143  XYY=            -12.1889
  XXY=            -11.8515  XXZ=              0.3273  XZZ=             -0.9757  YZZ=              6.6107
  YYZ=             10.4699  XYZ=              9.6631
 Hexadecapole moment (field-independent basis, Debye-Ang**3):
 XXXX=          -1390.4234 YYYY=           -789.9740 ZZZZ=           -276.5557 XXXY=             -7.3862
 XXXZ=            -33.6159 YYYX=            -18.4493 YYYZ=             64.7141 ZZZX=            -10.8634
 ZZZY=             10.0763 XXYY=           -419.2693 XXZZ=           -343.1322 YYZZ=           -232.1414
 XXYZ=              3.3794 YYXZ=              3.2398 ZZXY=             -5.5815
 N-N= 7.821604877302D+02 E-N=-3.082987715041D+03  KE= 6.462983330939D+02
 D1PCM: PCM CHGder 1st derivatives, ID1Alg=3 FixD1E=F DoIter=F DoCFld=F I1PDM=0.
 Calling FoFJK, ICntrl=      2127 FMM=F ISym2X=0 I1Cent= 0 IOpClX= 0 NMat=1 NMatS=1 NMatT=0.
 ***** Axes restored to original set *****
 -------------------------------------------------------------------
 Center     Atomic                   Forces (Hartrees/Bohr)
 Number     Number              X              Y              Z
 -------------------------------------------------------------------
      1        8           0.024229117    0.005228066   -0.024969943
      2        8           0.002998339   -0.003320723    0.000863667
      3        8          -0.015644173    0.005109571   -0.012689852
      4        8          -0.003689129   -0.004775828    0.037337259
      5        6          -0.025116973    0.012103045    0.000800755
      6        6          -0.004770844   -0.000137138   -0.000881985
      7        6          -0.000894134    0.002052510    0.000887547
      8        6          -0.013776236    0.010348487   -0.002783513
      9        6           0.000489035   -0.001630076    0.000344942
     10        6          -0.001104107   -0.001555319    0.000362659
     11        6           0.023157093   -0.032532941    0.006485144
     12        6           0.006127986    0.001803367   -0.014976518
     13        6           0.002302574    0.000896898   -0.005522231
     14        1           0.001442093   -0.003404439   -0.000523949
     15        1           0.006136338    0.000632838    0.000951630
     16        1           0.001599344   -0.001203665    0.000244235
     17        1           0.001849408   -0.000655710    0.000582656
     18        1          -0.000140586   -0.003213804    0.002826791
     19        1          -0.003187066   -0.000192827    0.001996473
     20        1          -0.000311961    0.002482749    0.003416292
     21        1          -0.001696119    0.011964939    0.005247941
 -------------------------------------------------------------------
 Cartesian Forces:  Max     0.037337259 RMS     0.010128821

 GradGradGradGradGradGradGradGradGradGradGradGradGradGradGradGradGradGrad
 Berny optimization.
 FormGI is forming the generalized inverse of G from B-inverse, IUseBI=4.
 Internal  Forces:  Max     0.035271894 RMS     0.007262689
 Search for a local minimum.
 Step number   1 out of a maximum of  103
 All quantities printed in internal units (Hartrees-Bohrs-Radians)
 Mixed Optimization -- RFO/linear search
 Second derivative matrix not updated -- first step.
 ITU=  0
     Eigenvalues ---    0.00765   0.00991   0.01344   0.01608   0.01642
     Eigenvalues ---    0.01906   0.02155   0.02156   0.02156   0.02156
     Eigenvalues ---    0.02157   0.02157   0.02157   0.02160   0.02182
     Eigenvalues ---    0.02194   0.07437   0.07579   0.15998   0.16000
     Eigenvalues ---    0.16000   0.16000   0.16000   0.16000   0.16000
     Eigenvalues ---    0.16000   0.22000   0.22493   0.24487   0.25000
     Eigenvalues ---    0.25000   0.25000   0.25000   0.25000   0.25000
     Eigenvalues ---    0.25000   0.32373   0.34382   0.34495   0.34504
     Eigenvalues ---    0.35182   0.35205   0.35265   0.35271   0.37430
     Eigenvalues ---    0.42228   0.42405   0.45003   0.46464   0.46468
     Eigenvalues ---    0.46479   0.46487   0.51189   0.52357   0.52538
     Eigenvalues ---    0.92211   0.93709
 RFO step:  Lambda=-1.19353272D-02 EMin= 7.65374934D-03
 Linear search not attempted -- first point.
 Iteration  1 RMS(Cart)=  0.07511487 RMS(Int)=  0.00171191
 Iteration  2 RMS(Cart)=  0.00314991 RMS(Int)=  0.00008094
 Iteration  3 RMS(Cart)=  0.00000402 RMS(Int)=  0.00008088
 Iteration  4 RMS(Cart)=  0.00000000 RMS(Int)=  0.00008088
 Variable       Old X    -DE/DX   Delta X   Delta X   Delta X     New X
                                 (Linear)    (Quad)   (Total)
    R1        2.57559   0.02445   0.00000   0.04566   0.04566   2.62125
    R2        2.65273  -0.01904   0.00000  -0.04121  -0.04121   2.61151
    R3        2.57387  -0.01003   0.00000  -0.01866  -0.01866   2.55521
    R4        1.85385  -0.01136   0.00000  -0.02170  -0.02170   1.83215
    R5        2.31930  -0.02077   0.00000  -0.02223  -0.02223   2.29707
    R6        2.31269  -0.03527   0.00000  -0.03717  -0.03717   2.27552
    R7        2.63611   0.01079   0.00000   0.02356   0.02361   2.65971
    R8        2.63612  -0.00389   0.00000  -0.00802  -0.00801   2.62812
    R9        2.63597   0.00680   0.00000   0.01506   0.01509   2.65106
   R10        2.75203   0.02074   0.00000   0.05369   0.05369   2.80572
   R11        2.63592  -0.00175   0.00000  -0.00446  -0.00449   2.63144
   R12        2.05344  -0.00224   0.00000  -0.00616  -0.00616   2.04728
   R13        2.63611  -0.00338   0.00000  -0.00723  -0.00725   2.62887
   R14        2.05380  -0.00401   0.00000  -0.01103  -0.01103   2.04278
   R15        2.63576  -0.00049   0.00000  -0.00194  -0.00198   2.63378
   R16        2.05237  -0.00181   0.00000  -0.00496  -0.00496   2.04740
   R17        2.05247  -0.00197   0.00000  -0.00540  -0.00540   2.04707
   R18        2.83467  -0.00041   0.00000  -0.00121  -0.00121   2.83346
   R19        2.06489  -0.00063   0.00000  -0.00178  -0.00178   2.06311
   R20        2.06690  -0.00354   0.00000  -0.00996  -0.00996   2.05695
   R21        2.06502  -0.00075   0.00000  -0.00210  -0.00210   2.06292
    A1        1.99046   0.02111   0.00000   0.08060   0.08060   2.07107
    A2        1.95156  -0.01221   0.00000  -0.07100  -0.07100   1.88055
    A3        2.10988   0.00288   0.00000   0.01017   0.01002   2.11989
    A4        2.07903  -0.00447   0.00000  -0.01789  -0.01803   2.06099
    A5        2.09428   0.00159   0.00000   0.00769   0.00764   2.10192
    A6        2.09436  -0.00711   0.00000  -0.02433  -0.02426   2.07011
    A7        2.10975   0.00428   0.00000   0.01493   0.01487   2.12462
    A8        2.07908   0.00283   0.00000   0.00939   0.00933   2.08840
    A9        2.09455   0.00101   0.00000   0.00263   0.00263   2.09717
   A10        2.10177  -0.00353   0.00000  -0.01890  -0.01890   2.08286
   A11        2.08687   0.00252   0.00000   0.01626   0.01626   2.10313
   A12        2.09437   0.00334   0.00000   0.01538   0.01540   2.10977
   A13        2.12572  -0.00653   0.00000  -0.03601  -0.03603   2.08969
   A14        2.06300   0.00320   0.00000   0.02058   0.02056   2.08356
   A15        2.09427   0.00154   0.00000   0.00273   0.00266   2.09694
   A16        2.09459  -0.00168   0.00000  -0.00666  -0.00663   2.08797
   A17        2.09432   0.00014   0.00000   0.00393   0.00397   2.09828
   A18        2.09454  -0.00036   0.00000  -0.00409  -0.00414   2.09040
   A19        2.09464  -0.00037   0.00000  -0.00113  -0.00111   2.09353
   A20        2.09401   0.00073   0.00000   0.00523   0.00525   2.09926
   A21        2.12633  -0.00151   0.00000  -0.00575  -0.00593   2.12039
   A22        1.95265   0.00152   0.00000   0.00581   0.00563   1.95828
   A23        2.20421  -0.00002   0.00000  -0.00006  -0.00024   2.20397
   A24        2.19613  -0.01817   0.00000  -0.06939  -0.06939   2.12674
   A25        1.91916   0.00480   0.00000   0.01833   0.01832   1.93749
   A26        2.16789   0.01337   0.00000   0.05105   0.05104   2.21893
   A27        1.91531   0.00119   0.00000   0.00367   0.00361   1.91892
   A28        1.90905  -0.00113   0.00000   0.00008   0.00004   1.90909
   A29        1.91471   0.00079   0.00000   0.00110   0.00105   1.91576
   A30        1.89620   0.00146   0.00000   0.01540   0.01536   1.91156
   A31        1.93154  -0.00387   0.00000  -0.03538  -0.03544   1.89610
   A32        1.89672   0.00157   0.00000   0.01565   0.01562   1.91234
    D1        1.57188  -0.00009   0.00000  -0.00260  -0.00268   1.56920
    D2       -1.57098  -0.00104   0.00000  -0.03092  -0.03084  -1.60181
    D3       -0.00173  -0.00069   0.00000  -0.02542  -0.02522  -0.02695
    D4       -3.14157  -0.00057   0.00000  -0.01891  -0.01911   3.12250
    D5       -0.00003   0.00043   0.00000   0.00973   0.00978   0.00974
    D6       -3.14154   0.00136   0.00000   0.04297   0.04293  -3.09860
    D7        3.14029  -0.00081   0.00000  -0.02452  -0.02474   3.11555
    D8       -0.00023  -0.00048   0.00000  -0.01365  -0.01389  -0.01412
    D9       -0.00003   0.00014   0.00000   0.00407   0.00409   0.00406
   D10       -3.14055   0.00048   0.00000   0.01493   0.01494  -3.12561
   D11       -3.14023   0.00107   0.00000   0.03230   0.03203  -3.10820
   D12       -0.00006   0.00092   0.00000   0.02760   0.02746   0.02740
   D13        0.00011   0.00014   0.00000   0.00424   0.00418   0.00428
   D14        3.14029  -0.00001   0.00000  -0.00046  -0.00040   3.13989
   D15       -0.00000  -0.00041   0.00000  -0.01189  -0.01196  -0.01196
   D16       -3.12674  -0.00029   0.00000  -0.00727  -0.00734  -3.13407
   D17        3.14054  -0.00073   0.00000  -0.02256  -0.02258   3.11796
   D18        0.01380  -0.00061   0.00000  -0.01794  -0.01796  -0.00415
   D19       -2.61921  -0.00125   0.00000  -0.04622  -0.04634  -2.66555
   D20        0.52248  -0.00027   0.00000  -0.01118  -0.01126   0.51122
   D21        0.52344  -0.00091   0.00000  -0.03543  -0.03535   0.48809
   D22       -2.61805   0.00007   0.00000  -0.00039  -0.00028  -2.61833
   D23       -0.00016  -0.00016   0.00000  -0.00472  -0.00476  -0.00492
   D24        3.14045  -0.00012   0.00000  -0.00363  -0.00361   3.13684
   D25       -3.14035  -0.00000   0.00000  -0.00003  -0.00010  -3.14045
   D26        0.00026   0.00003   0.00000   0.00106   0.00105   0.00131
   D27       -0.00005   0.00039   0.00000   0.01141   0.01151   0.01146
   D28       -3.13808   0.00026   0.00000   0.00744   0.00755  -3.13052
   D29        3.12721   0.00019   0.00000   0.00648   0.00643   3.13364
   D30       -0.01081   0.00006   0.00000   0.00250   0.00247  -0.00834
   D31        0.00013  -0.00011   0.00000  -0.00311  -0.00303  -0.00290
   D32        3.13816   0.00002   0.00000   0.00085   0.00092   3.13908
   D33       -3.14048  -0.00014   0.00000  -0.00419  -0.00418   3.13852
   D34       -0.00245  -0.00001   0.00000  -0.00023  -0.00023  -0.00268
   D35       -1.05824   0.00171   0.00000   0.01776   0.01769  -1.04055
   D36       -3.13686  -0.00010   0.00000  -0.00331  -0.00338  -3.14023
   D37        1.06744  -0.00181   0.00000  -0.02312  -0.02317   1.04427
   D38        2.08507   0.00187   0.00000   0.02429   0.02435   2.10942
   D39        0.00645   0.00005   0.00000   0.00322   0.00328   0.00974
   D40       -2.07243  -0.00166   0.00000  -0.01659  -0.01652  -2.08895
         Item               Value     Threshold  Converged?
 Maximum Force            0.035272     0.000450     NO 
 RMS     Force            0.007263     0.000300     NO 
 Maximum Displacement     0.218764     0.001800     NO 
 RMS     Displacement     0.074333     0.001200     NO 
 Predicted change in Energy=-6.260430D-03
 GradGradGradGradGradGradGradGradGradGradGradGradGradGradGradGradGradGrad

                          Input orientation:                          
 ---------------------------------------------------------------------
 Center     Atomic      Atomic             Coordinates (Angstroms)
 Number     Number       Type             X           Y           Z
 ---------------------------------------------------------------------
      1          8           0        1.256103    0.575481    0.683895
      2          8           0       -0.774404   -2.772188   -0.751086
      3          8           0        0.796535   -2.230286    0.752735
      4          8           0        1.851916    0.762429   -1.490103
      5          6           0       -0.092737    0.610879    0.362281
      6          6           0       -0.809633   -0.564855    0.071325
      7          6           0       -0.735214    1.844304    0.368626
      8          6           0       -2.179107   -0.462982   -0.215435
      9          6           0       -2.097449    1.924982    0.091396
     10          6           0       -2.822104    0.770534   -0.199498
     11          6           0       -0.157295   -1.898586    0.076154
     12          6           0        2.183522    0.674522   -0.335849
     13          6           0        3.581872    0.644108    0.204424
     14          1           0       -0.166591    2.737857    0.596505
     15          1           0       -2.748760   -1.355185   -0.434546
     16          1           0       -2.590248    2.889791    0.103012
     17          1           0       -3.882382    0.830527   -0.413196
     18          1           0        3.731697    1.474646    0.897013
     19          1           0        4.289130    0.724998   -0.619016
     20          1           0        3.750257   -0.291864    0.740433
     21          1           0       -0.323308   -3.626411   -0.668571
 ---------------------------------------------------------------------
                    Distance matrix (angstroms):
                    1          2          3          4          5
     1  O    0.000000
     2  O    4.170014   0.000000
     3  O    2.843989   2.241201   0.000000
     4  O    2.261904   4.465111   3.885935   0.000000
     5  C    1.387104   3.626210   3.002579   2.689976   0.000000
     6  C    2.437801   2.355827   2.412003   3.359104   1.407460
     7  C    2.382152   4.750504   4.369907   3.364309   1.390739
     8  C    3.699712   2.755458   3.593768   4.401767   2.416583
     9  C    3.663129   4.952134   5.106738   4.410233   2.412284
    10  C    4.177343   4.128947   4.796480   4.848937   2.791151
    11  C    2.913426   1.352158   1.215557   3.683896   2.526549
    12  C    1.381953   4.560872   3.398037   1.204156   2.381762
    13  C    2.375669   5.617937   4.039912   2.424493   3.678149
    14  H    2.589896   5.704913   5.063049   3.511499   2.141109
    15  H    4.584464   2.450751   3.839864   5.173462   3.399234
    16  H    4.526353   6.007061   6.173138   5.176534   3.390902
    17  H    5.260483   4.770037   5.711413   5.834942   3.874405
    18  H    2.642439   6.407556   4.728902   3.120761   3.957061
    19  H    3.304419   6.155252   4.776361   2.588475   4.491851
    20  H    2.641266   5.371144   3.533002   3.112960   3.965671
    21  H    4.688241   0.969532   2.285459   4.966732   4.366972
                    6          7          8          9         10
     6  C    0.000000
     7  C    2.428574   0.000000
     8  C    1.402879   2.783796   0.000000
     9  C    2.803241   1.392497   2.408980   0.000000
    10  C    2.430360   2.414716   1.391136   1.393734   0.000000
    11  C    1.484724   3.798520   2.496739   4.287668   3.781718
    12  C    3.265091   3.222374   4.510093   4.480279   5.008403
    13  C    4.556821   4.483823   5.881395   5.823066   6.417947
    14  H    3.405469   1.083373   3.867148   2.155020   3.399372
    15  H    2.154238   3.864735   1.080990   3.385309   2.139932
    16  H    3.886666   2.145867   3.392864   1.083440   2.153258
    17  H    3.409346   3.397596   2.147887   2.153702   1.083262
    18  H    5.046285   4.513218   6.318983   5.901759   6.682096
    19  H    5.304495   5.241404   6.588798   6.537051   7.123743
    20  H    4.616797   4.982058   6.008354   6.287393   6.723696
    21  H    3.187018   5.583383   3.695484   5.877337   5.079088
                   11         12         13         14         15
    11  C    0.000000
    12  C    3.502863   0.000000
    13  C    4.523617   1.499401   0.000000
    14  H    4.665560   3.263383   4.311437   0.000000
    15  H    2.696625   5.334496   6.669509   4.948096   0.000000
    16  H    5.371083   5.280994   6.568748   2.478050   4.281812
    17  H    4.643683   6.068402   7.492082   4.297035   2.462294
    18  H    5.213133   2.134712   1.091751   4.108851   7.195645
    19  H    5.209333   2.125163   1.088490   5.038109   7.341191
    20  H    4.276889   2.132356   1.091652   4.953950   6.689427
    21  H    1.888798   4.989280   5.852340   6.490676   3.331074
                   16         17         18         19         20
    16  H    0.000000
    17  H    2.485287   0.000000
    18  H    6.526872   7.752789   0.000000
    19  H    7.247999   8.174785   1.780743   0.000000
    20  H    7.122586   7.800500   1.773533   1.781150   0.000000
    21  H    6.942279   5.709336   6.701858   6.341278   5.449626
                   21
    21  H    0.000000
 Stoichiometry    C9H8O4
 Framework group  C1[X(C9H8O4)]
 Deg. of freedom    57
 Full point group                 C1      NOp   1
 Largest Abelian subgroup         C1      NOp   1
 Largest concise Abelian subgroup C1      NOp   1
                         Standard orientation:                         
 ---------------------------------------------------------------------
 Center     Atomic      Atomic             Coordinates (Angstroms)
 Number     Number       Type             X           Y           Z
 ---------------------------------------------------------------------
      1          8           0        1.221624   -0.557947   -0.687898
      2          8           0       -1.079883    2.670767    0.603415
      3          8           0        0.547783    2.199481   -0.863410
      4          8           0        1.801534   -0.620931    1.497496
      5          6           0       -0.124560   -0.686509   -0.379159
      6          6           0       -0.933828    0.439606   -0.138547
      7          6           0       -0.669769   -1.965527   -0.347307
      8          6           0       -2.294994    0.241974    0.137566
      9          6           0       -2.025228   -2.141817   -0.081413
     10          6           0       -2.840589   -1.037514    0.159831
     11          6           0       -0.386386    1.818933   -0.185109
     12          6           0        2.140470   -0.548509    0.344297
     13          6           0        3.539264   -0.428818   -0.182253
     14          1           0       -0.030927   -2.819763   -0.536675
     15          1           0       -2.934643    1.094474    0.318209
     16          1           0       -2.441885   -3.141768   -0.063045
     17          1           0       -3.895783   -1.172009    0.364605
     18          1           0        3.761822   -1.269241   -0.842614
     19          1           0        4.239797   -0.425341    0.650844
     20          1           0        3.641908    0.497816   -0.750158
     21          1           0       -0.695031    3.553963    0.494573
 ---------------------------------------------------------------------
 Rotational constants (GHZ):           1.0611711           0.7457236           0.4982478
 Standard basis: 6-311++G(d,p) (5D, 7F)
 There are   355 symmetry adapted cartesian basis functions of A   symmetry.
 There are   342 symmetry adapted basis functions of A   symmetry.
   342 basis functions,   540 primitive gaussians,   355 cartesian basis functions
    47 alpha electrons       47 beta electrons
       nuclear repulsion energy       778.0910961448 Hartrees.
 NAtoms=   21 NActive=   21 NUniq=   21 SFac= 1.00D+00 NAtFMM=   60 NAOKFM=F Big=F
 Integral buffers will be    131072 words long.
 Raffenetti 2 integral format.
 Two-electron integral symmetry is turned on.
 ------------------------------------------------------------------------------
 Polarizable Continuum Model (PCM)
 =================================
 Model                : PCM.
 Atomic radii         : UFF (Universal Force Field).
 Polarization charges : Total charges.
 Charge compensation  : None.
 Solution method      : On-the-fly selection.
 Cavity type          : Scaled VdW (van der Waals Surface) (Alpha=1.100).
 Cavity algorithm     : GePol (No added spheres)
                        Default sphere list used, NSphG=   21.
                        Lebedev-Laikov grids with approx.  5.0 points / Ang**2.
                        Smoothing algorithm: York/Karplus (Gamma=1.0000).
                        Polarization charges: spherical gaussians, with
                                              point-specific exponents (IZeta= 3).
                        Self-potential: point-specific (ISelfS= 7).
                        Self-field    : sphere-specific E.n sum rule (ISelfD= 2).
 1st derivatives      : Analytical E(r).r(x)/FMM algorithm (CHGder, D1EAlg=3).
                        Cavity 1st derivative terms included.
 Solvent              : Water, Eps=  78.355300 Eps(inf)=   1.777849
 ------------------------------------------------------------------------------
 One-electron integrals computed using PRISM.
 NBasis=   342 RedAO= T EigKep=  2.66D-06  NBF=   342
 NBsUse=   341 1.00D-06 EigRej=  6.85D-07 NBFU=   341
 Initial guess from the checkpoint file:  "Aspirin.chk"
 B after Tr=     0.000000    0.000000    0.000000
         Rot=    0.999846    0.004790   -0.001549   -0.016840 Ang=   2.01 deg.
 ExpMin= 3.60D-02 ExpMax= 8.59D+03 ExpMxC= 1.30D+03 IAcc=3 IRadAn=         5 AccDes= 0.00D+00
 Harris functional with IExCor=  402 and IRadAn=       5 diagonalized for initial guess.
 HarFok:  IExCor=  402 AccDes= 0.00D+00 IRadAn=         5 IDoV= 1 UseB2=F ITyADJ=14
 ICtDFT=  3500011 ScaDFX=  1.000000  1.000000  1.000000  1.000000
 FoFCou: FMM=F IPFlag=           0 FMFlag=      100000 FMFlg1=           0
         NFxFlg=           0 DoJE=T BraDBF=F KetDBF=T FulRan=T
         wScrn=  0.000000 ICntrl=       500 IOpCl=  0 I1Cent=   200000004 NGrid=           0
         NMat0=    1 NMatS0=      1 NMatT0=    0 NMatD0=    1 NMtDS0=    0 NMtDT0=    0
 Petite list used in FoFCou.
 Requested convergence on RMS density matrix=1.00D-08 within 128 cycles.
 Requested convergence on MAX density matrix=1.00D-06.
 Requested convergence on             energy=1.00D-06.
 No special actions if energy rises.
 Inv3:  Mode=1 IEnd=    10212075.
 Iteration    1 A*A^-1 deviation from unit magnitude is 3.55D-15 for   1812.
 Iteration    1 A*A^-1 deviation from orthogonality  is 2.26D-15 for   1820   1524.
 Iteration    1 A^-1*A deviation from unit magnitude is 3.55D-15 for   1812.
 Iteration    1 A^-1*A deviation from orthogonality  is 8.60D-14 for   1283   1229.
 Error on total polarization charges =  0.01371
 SCF Done:  E(RB3LYP) =  -648.898307213     A.U. after   13 cycles
            NFock= 13  Conv=0.42D-08     -V/T= 2.0039
 D1PCM: PCM CHGder 1st derivatives, ID1Alg=3 FixD1E=F DoIter=F DoCFld=F I1PDM=0.
 Calling FoFJK, ICntrl=      2127 FMM=F ISym2X=0 I1Cent= 0 IOpClX= 0 NMat=1 NMatS=1 NMatT=0.
 ***** Axes restored to original set *****
 -------------------------------------------------------------------
 Center     Atomic                   Forces (Hartrees/Bohr)
 Number     Number              X              Y              Z
 -------------------------------------------------------------------
      1        8           0.007796782    0.000759025   -0.001347924
      2        8          -0.000390918    0.002084129   -0.000643567
      3        8          -0.002100474    0.003584134   -0.003345048
      4        8           0.001913132    0.000155678   -0.000397467
      5        6          -0.006529435   -0.000138546   -0.001686599
      6        6           0.002230971    0.001820481   -0.000885799
      7        6           0.000851502    0.000361308    0.000703686
      8        6          -0.001436761    0.003187845    0.000221656
      9        6          -0.000296385   -0.000593436    0.000076935
     10        6           0.000586082   -0.000384829    0.000192554
     11        6           0.002720357   -0.006803702    0.004172667
     12        6          -0.006342998   -0.001661140    0.002845966
     13        6          -0.000339781    0.000595286   -0.002137385
     14        1           0.000815330   -0.000592797   -0.000268872
     15        1           0.001276063   -0.001272968   -0.000345031
     16        1           0.000192508    0.000132113    0.000092068
     17        1           0.000127950   -0.000239076    0.000086820
     18        1          -0.000307404   -0.000816287    0.001049088
     19        1          -0.000497612   -0.000031523    0.000094595
     20        1          -0.000373327    0.000534110    0.001154326
     21        1           0.000104418   -0.000679805    0.000367329
 -------------------------------------------------------------------
 Cartesian Forces:  Max     0.007796782 RMS     0.002203441

 GradGradGradGradGradGradGradGradGradGradGradGradGradGradGradGradGradGrad
 Berny optimization.
 Using GEDIIS/GDIIS optimizer.
 FormGI is forming the generalized inverse of G from B-inverse, IUseBI=4.
 Internal  Forces:  Max     0.005987863 RMS     0.001254760
 Search for a local minimum.
 Step number   2 out of a maximum of  103
 All quantities printed in internal units (Hartrees-Bohrs-Radians)
 Mixed Optimization -- RFO/linear search
 Update second derivatives using D2CorX and points    1    2
 DE= -6.27D-03 DEPred=-6.26D-03 R= 1.00D+00
 TightC=F SS=  1.41D+00  RLast= 2.22D-01 DXNew= 5.0454D-01 6.6496D-01
 Trust test= 1.00D+00 RLast= 2.22D-01 DXMaxT set to 5.05D-01
 ITU=  1  0
 Use linear search instead of GDIIS.
     Eigenvalues ---    0.00765   0.00965   0.01332   0.01628   0.01649
     Eigenvalues ---    0.01900   0.02140   0.02156   0.02156   0.02156
     Eigenvalues ---    0.02157   0.02157   0.02158   0.02162   0.02178
     Eigenvalues ---    0.02197   0.07398   0.07498   0.15525   0.15999
     Eigenvalues ---    0.16000   0.16000   0.16000   0.16000   0.16000
     Eigenvalues ---    0.16161   0.21989   0.22514   0.23747   0.24711
     Eigenvalues ---    0.24989   0.24994   0.24998   0.25000   0.25000
     Eigenvalues ---    0.28101   0.32373   0.34362   0.34497   0.34504
     Eigenvalues ---    0.35196   0.35231   0.35263   0.35282   0.36908
     Eigenvalues ---    0.42127   0.42948   0.43490   0.46406   0.46474
     Eigenvalues ---    0.46483   0.46882   0.51412   0.52115   0.52545
     Eigenvalues ---    0.90569   0.94458
 RFO step:  Lambda=-1.01158764D-03 EMin= 7.65375287D-03
 Quartic linear search produced a step of  0.04745.
 Iteration  1 RMS(Cart)=  0.04778804 RMS(Int)=  0.00145915
 Iteration  2 RMS(Cart)=  0.00183447 RMS(Int)=  0.00022640
 Iteration  3 RMS(Cart)=  0.00000228 RMS(Int)=  0.00022639
 Iteration  4 RMS(Cart)=  0.00000000 RMS(Int)=  0.00022639
 Variable       Old X    -DE/DX   Delta X   Delta X   Delta X     New X
                                 (Linear)    (Quad)   (Total)
    R1        2.62125   0.00210   0.00217   0.00557   0.00773   2.62898
    R2        2.61151  -0.00599  -0.00196  -0.01514  -0.01709   2.59442
    R3        2.55521  -0.00062  -0.00089  -0.00179  -0.00268   2.55253
    R4        1.83215   0.00068  -0.00103   0.00073  -0.00030   1.83185
    R5        2.29707  -0.00448  -0.00105  -0.00577  -0.00683   2.29024
    R6        2.27552  -0.00013  -0.00176  -0.00130  -0.00306   2.27246
    R7        2.65971  -0.00288   0.00112  -0.00600  -0.00487   2.65484
    R8        2.62812  -0.00161  -0.00038  -0.00394  -0.00432   2.62380
    R9        2.65106  -0.00044   0.00072  -0.00068   0.00004   2.65109
   R10        2.80572   0.00178   0.00255   0.00657   0.00912   2.81484
   R11        2.63144   0.00001  -0.00021   0.00004  -0.00018   2.63126
   R12        2.04728  -0.00012  -0.00029  -0.00053  -0.00082   2.04645
   R13        2.62887  -0.00061  -0.00034  -0.00149  -0.00185   2.62702
   R14        2.04278   0.00045  -0.00052   0.00100   0.00048   2.04326
   R15        2.63378   0.00024  -0.00009   0.00072   0.00062   2.63439
   R16        2.04740   0.00003  -0.00024  -0.00006  -0.00029   2.04711
   R17        2.04707  -0.00016  -0.00026  -0.00062  -0.00088   2.04619
   R18        2.83346  -0.00137  -0.00006  -0.00445  -0.00451   2.82895
   R19        2.06311   0.00000  -0.00008  -0.00005  -0.00013   2.06298
   R20        2.05695  -0.00039  -0.00047  -0.00149  -0.00196   2.05498
   R21        2.06292   0.00005  -0.00010   0.00008  -0.00002   2.06291
    A1        2.07107   0.00030   0.00382   0.00357   0.00740   2.07846
    A2        1.88055  -0.00009  -0.00337  -0.00251  -0.00587   1.87468
    A3        2.11989  -0.00170   0.00048  -0.00664  -0.00622   2.11367
    A4        2.06099  -0.00040  -0.00086  -0.00205  -0.00297   2.05803
    A5        2.10192   0.00209   0.00036   0.00826   0.00859   2.11051
    A6        2.07011  -0.00095  -0.00115  -0.00536  -0.00650   2.06360
    A7        2.12462  -0.00020   0.00071  -0.00010   0.00058   2.12520
    A8        2.08840   0.00115   0.00044   0.00538   0.00580   2.09421
    A9        2.09717  -0.00089   0.00012  -0.00392  -0.00379   2.09338
   A10        2.08286  -0.00055  -0.00090  -0.00497  -0.00587   2.07699
   A11        2.10313   0.00144   0.00077   0.00887   0.00964   2.11277
   A12        2.10977   0.00029   0.00073   0.00182   0.00254   2.11231
   A13        2.08969  -0.00190  -0.00171  -0.01305  -0.01477   2.07492
   A14        2.08356   0.00161   0.00098   0.01135   0.01231   2.09588
   A15        2.09694  -0.00042   0.00013  -0.00097  -0.00085   2.09609
   A16        2.08797  -0.00004  -0.00031  -0.00129  -0.00160   2.08637
   A17        2.09828   0.00046   0.00019   0.00225   0.00245   2.10073
   A18        2.09040  -0.00012  -0.00020   0.00014  -0.00008   2.09032
   A19        2.09353  -0.00017  -0.00005  -0.00165  -0.00169   2.09184
   A20        2.09926   0.00029   0.00025   0.00151   0.00176   2.10102
   A21        2.12039   0.00250  -0.00028   0.01115   0.00965   2.13005
   A22        1.95828  -0.00062   0.00027  -0.00154  -0.00248   1.95580
   A23        2.20397  -0.00183  -0.00001  -0.00677  -0.00798   2.19599
   A24        2.12674   0.00385  -0.00329   0.01410   0.01074   2.13748
   A25        1.93749  -0.00325   0.00087  -0.01299  -0.01219   1.92530
   A26        2.21893  -0.00059   0.00242  -0.00095   0.00141   2.22034
   A27        1.91892   0.00002   0.00017  -0.00121  -0.00107   1.91786
   A28        1.90909  -0.00006   0.00000   0.00263   0.00262   1.91171
   A29        1.91576  -0.00012   0.00005  -0.00238  -0.00236   1.91341
   A30        1.91156   0.00058   0.00073   0.00737   0.00809   1.91965
   A31        1.89610  -0.00101  -0.00168  -0.01351  -0.01524   1.88086
   A32        1.91234   0.00059   0.00074   0.00709   0.00782   1.92016
    D1        1.56920  -0.00084  -0.00013  -0.03739  -0.03758   1.53162
    D2       -1.60181  -0.00115  -0.00146  -0.05389  -0.05528  -1.65710
    D3       -0.02695  -0.00017  -0.00120  -0.00556  -0.00671  -0.03366
    D4        3.12250  -0.00036  -0.00091  -0.02557  -0.02653   3.09597
    D5        0.00974   0.00102   0.00046   0.05888   0.05967   0.06941
    D6       -3.09860  -0.00034   0.00204  -0.02796  -0.02626  -3.12486
    D7        3.11555  -0.00053  -0.00117  -0.02521  -0.02637   3.08918
    D8       -0.01412  -0.00039  -0.00066  -0.01738  -0.01806  -0.03218
    D9        0.00406  -0.00017   0.00019  -0.00815  -0.00793  -0.00387
   D10       -3.12561  -0.00003   0.00071  -0.00032   0.00038  -3.12523
   D11       -3.10820   0.00058   0.00152   0.02638   0.02791  -3.08030
   D12        0.02740   0.00051   0.00130   0.02285   0.02420   0.05160
   D13        0.00428   0.00020   0.00020   0.00979   0.00998   0.01426
   D14        3.13989   0.00013  -0.00002   0.00627   0.00627  -3.13703
   D15       -0.01196   0.00001  -0.00057   0.00106   0.00046  -0.01150
   D16       -3.13407  -0.00014  -0.00035  -0.00561  -0.00594  -3.14001
   D17        3.11796  -0.00013  -0.00107  -0.00664  -0.00774   3.11022
   D18       -0.00415  -0.00029  -0.00085  -0.01331  -0.01413  -0.01829
   D19       -2.66555  -0.00007  -0.00220  -0.01192  -0.01432  -2.67987
   D20        0.51122  -0.00160  -0.00053  -0.10420  -0.10457   0.40665
   D21        0.48809   0.00009  -0.00168  -0.00394  -0.00579   0.48231
   D22       -2.61833  -0.00144  -0.00001  -0.09622  -0.09603  -2.71436
   D23       -0.00492  -0.00009  -0.00023  -0.00426  -0.00446  -0.00938
   D24        3.13684  -0.00009  -0.00017  -0.00420  -0.00435   3.13250
   D25       -3.14045  -0.00001  -0.00000  -0.00065  -0.00062  -3.14107
   D26        0.00131  -0.00001   0.00005  -0.00058  -0.00050   0.00081
   D27        0.01146   0.00010   0.00055   0.00439   0.00492   0.01638
   D28       -3.13052   0.00003   0.00036   0.00102   0.00138  -3.12914
   D29        3.13364   0.00022   0.00030   0.01077   0.01109  -3.13845
   D30       -0.00834   0.00015   0.00012   0.00740   0.00755  -0.00079
   D31       -0.00290  -0.00006  -0.00014  -0.00278  -0.00289  -0.00579
   D32        3.13908   0.00001   0.00004   0.00061   0.00067   3.13975
   D33        3.13852  -0.00006  -0.00020  -0.00284  -0.00301   3.13551
   D34       -0.00268   0.00001  -0.00001   0.00054   0.00055  -0.00213
   D35       -1.04055   0.00078   0.00084   0.02066   0.02147  -1.01908
   D36       -3.14023   0.00009  -0.00016   0.01069   0.01051  -3.12972
   D37        1.04427  -0.00052  -0.00110   0.00181   0.00071   1.04498
   D38        2.10942   0.00056   0.00116  -0.00074   0.00042   2.10985
   D39        0.00974  -0.00013   0.00016  -0.01071  -0.01054  -0.00080
   D40       -2.08895  -0.00075  -0.00078  -0.01959  -0.02034  -2.10929
         Item               Value     Threshold  Converged?
 Maximum Force            0.005988     0.000450     NO 
 RMS     Force            0.001255     0.000300     NO 
 Maximum Displacement     0.202845     0.001800     NO 
 RMS     Displacement     0.047673     0.001200     NO 
 Predicted change in Energy=-5.383853D-04
 GradGradGradGradGradGradGradGradGradGradGradGradGradGradGradGradGradGrad

                          Input orientation:                          
 ---------------------------------------------------------------------
 Center     Atomic      Atomic             Coordinates (Angstroms)
 Number     Number       Type             X           Y           Z
 ---------------------------------------------------------------------
      1          8           0        1.253113    0.585387    0.663313
      2          8           0       -0.782224   -2.771027   -0.747960
      3          8           0        0.871677   -2.176448    0.645394
      4          8           0        1.877268    0.656956   -1.506682
      5          6           0       -0.098697    0.622429    0.336719
      6          6           0       -0.810335   -0.556158    0.057075
      7          6           0       -0.737445    1.855147    0.351371
      8          6           0       -2.185321   -0.455482   -0.202547
      9          6           0       -2.105384    1.932062    0.103160
     10          6           0       -2.832287    0.774552   -0.171039
     11          6           0       -0.148299   -1.890497    0.056591
     12          6           0        2.184561    0.625132   -0.344508
     13          6           0        3.568169    0.638786    0.226892
     14          1           0       -0.157881    2.744296    0.566480
     15          1           0       -2.743559   -1.356164   -0.417561
     16          1           0       -2.598700    2.896266    0.124573
     17          1           0       -3.896541    0.828864   -0.363043
     18          1           0        3.689623    1.501281    0.885008
     19          1           0        4.294774    0.682438   -0.581000
     20          1           0        3.727153   -0.260986    0.824235
     21          1           0       -0.307865   -3.614134   -0.685973
 ---------------------------------------------------------------------
                    Distance matrix (angstroms):
                    1          2          3          4          5
     1  O    0.000000
     2  O    4.171308   0.000000
     3  O    2.788108   2.242844   0.000000
     4  O    2.259108   4.404500   3.697407   0.000000
     5  C    1.391197   3.627573   2.978358   2.702547   0.000000
     6  C    2.434844   2.356803   2.408448   3.337692   1.404883
     7  C    2.381579   4.755210   4.350802   3.424141   1.388454
     8  C    3.695396   2.761866   3.609149   4.409412   2.409709
     9  C    3.661531   4.959255   5.102623   4.480959   2.407588
    10  C    4.174018   4.136028   4.805654   4.896701   2.784506
    11  C    2.908963   1.350740   1.211944   3.610576   2.528978
    12  C    1.372908   4.527526   3.248449   1.202535   2.382718
    13  C    2.356438   5.612762   3.920684   2.421726   3.668548
    14  H    2.580925   5.704065   5.027916   3.577265   2.135091
    15  H    4.572888   2.440868   3.856510   5.156634   3.388077
    16  H    4.524033   6.014907   6.168241   5.264009   3.386053
    17  H    5.256579   4.775599   5.725796   5.888491   3.867285
    18  H    2.612392   6.396611   4.639389   3.117322   3.927388
    19  H    3.287770   6.142492   4.625458   2.588797   4.488697
    20  H    2.619755   5.395053   3.443069   3.114140   3.956669
    21  H    4.679017   0.969375   2.287094   4.867297   4.363269
                    6          7          8          9         10
     6  C    0.000000
     7  C    2.430291   0.000000
     8  C    1.402899   2.782477   0.000000
     9  C    2.805443   1.392402   2.408364   0.000000
    10  C    2.431278   2.414325   1.390159   1.394060   0.000000
    11  C    1.489548   3.803135   2.505170   4.294684   3.789207
    12  C    3.244398   3.245812   4.503748   4.506894   5.022069
    13  C    4.541809   4.475862   5.872350   5.820402   6.414252
    14  H    3.402673   1.082937   3.865294   2.160360   3.402393
    15  H    2.145378   3.863712   1.081244   3.389816   2.146764
    16  H    3.888706   2.144677   3.392949   1.083286   2.154906
    17  H    3.408731   3.397578   2.145595   2.154678   1.082798
    18  H    5.016787   4.473133   6.287024   5.863358   6.646705
    19  H    5.291823   5.250503   6.590123   6.556802   7.139437
    20  H    4.611341   4.963290   6.004120   6.272790   6.714847
    21  H    3.186819   5.583337   3.706160   5.883374   5.089050
                   11         12         13         14         15
    11  C    0.000000
    12  C    3.454201   0.000000
    13  C    4.498713   1.497016   0.000000
    14  H    4.662766   3.287520   4.293244   0.000000
    15  H    2.691785   5.311990   6.650794   4.946498   0.000000
    16  H    5.377935   5.315794   6.567874   2.485151   4.289295
    17  H    4.649767   6.084542   7.490397   4.302380   2.471171
    18  H    5.188457   2.131797   1.091680   4.055840   7.158737
    19  H    5.173723   2.124197   1.087451   5.039257   7.329444
    20  H    4.273607   2.128557   1.091643   4.918501   6.679191
    21  H    1.883557   4.929520   5.826174   6.482343   3.332128
                   16         17         18         19         20
    16  H    0.000000
    17  H    2.489239   0.000000
    18  H    6.485927   7.717490   0.000000
    19  H    7.274535   8.195522   1.784906   0.000000
    20  H    7.104519   7.792183   1.763714   1.785196   0.000000
[...]
 ,0.64651564,-0.00108314,0.00045990,-0.00124305,0.00025271,-0.00060110,
 -0.00072933,-0.00007621,0.00080029,-0.00148082,-0.00031109,0.00001476,
 0.00025408,0.00184047,-0.01015234,-0.00603638,0.00565924,0.00822790,0.
 00997272,-0.01791197,-0.00066013,0.00325900,-0.01360965,-0.01066213,-0
 .06827204,-0.03156782,-0.05580945,-0.07819331,0.11584430,0.07786666,0.
 16766437,-0.00914902,0.00714007,0.00021211,-0.15505774,-0.06579445,-0.
 00360192,-0.64685091,0.08633032,0.00970369,0.00051032,0.00261136,0.000
 82578,0.02977835,-0.00363767,0.00409017,-0.10747702,0.02296760,-0.0043
 4435,0.00156158,-0.00707600,-0.00148582,-0.01868370,0.03039713,0.00260
 354,-0.00198458,-0.00180623,-0.00038789,-0.00514304,-0.00361159,-0.003
 05984,0.89541381,0.01540183,0.00070927,-0.00044302,-0.03660262,-0.2009
 6660,-0.00853808,0.09128779,-0.12152720,-0.00557174,0.00169735,0.00026
 218,-0.00418615,-0.00422661,-0.03604776,-0.00551467,0.03737863,-0.1700
 1259,-0.00713177,-0.00532572,0.00076602,-0.00270266,0.02284127,0.00143
 839,0.00256154,-0.00295846,0.00034811,-0.00042448,-0.00326962,0.009170
 64,-0.00047163,-0.07511493,0.56301048,0.00180432,0.00083351,-0.0041201
 4,-0.00163280,-0.00794455,-0.06285015,0.01043752,-0.00346083,-0.076180
 30,-0.00020819,0.00009412,-0.00037690,0.00339193,-0.00692720,0.0003399
 8,-0.00312380,-0.00939795,-0.08071104,-0.00185226,-0.00223213,0.005992
 12,-0.00008577,0.00672800,0.00045032,-0.00054585,-0.00025204,-0.001394
 38,-0.00323773,-0.00052173,0.00755072,-0.00364003,0.02624706,0.2116162
 2,-0.14421009,-0.00527386,0.03671479,0.00167214,0.00387227,0.00010201,
 -0.00069162,0.00448882,0.00024214,-0.15503915,0.02341228,-0.17726381,-
 0.07462078,0.00264085,0.01531369,0.00297217,0.00285637,0.00314162,0.00
 653787,-0.00447792,0.00179195,0.00122695,0.00066207,-0.00103408,-0.002
 08890,-0.00100778,-0.00227580,0.00178801,0.00169975,0.00079761,-0.0024
 5221,-0.00880868,0.00046360,0.56946511,-0.00181978,-0.05082923,0.00528
 204,0.00231819,0.00148173,0.00018815,0.00463688,0.00029365,0.00006802,
 0.02161581,-0.08476790,0.07593106,-0.00037054,-0.00357402,-0.00207168,
 -0.00139817,-0.00086773,-0.00075818,0.00413768,0.00028434,0.00182279,0
 .00029339,-0.00033044,-0.00060090,-0.00031839,-0.00115336,0.00069103,-
 0.00009197,0.00021919,0.00005727,-0.00757510,-0.00012525,-0.00008078,-
 0.03380193,0.23220795,0.01223944,0.00931217,-0.12973664,-0.00089710,-0
 .00373873,0.00037990,0.00216713,-0.00367195,-0.00365896,-0.14998851,0.
 07266357,-0.64641812,0.03759127,-0.00412600,0.03046695,-0.00811918,-0.
 00081827,-0.00438763,-0.01281909,0.00221998,-0.00471830,-0.00192883,-0
 .00223640,-0.00157174,0.00144088,0.00354823,0.00029013,-0.00139087,-0.
 00189796,-0.00020451,-0.00137125,0.00809215,0.00131318,0.17288791,-0.0
 8338815,0.86056526,-0.04515913,0.00233687,-0.00088169,0.00000630,-0.00
 029606,0.00000280,0.00019409,0.00001928,-0.00016264,-0.00386691,0.0026
 5333,-0.01483322,0.00330982,0.00024317,0.00297806,-0.00056202,0.000014
 16,-0.00016941,-0.00114277,-0.00003782,-0.00028556,-0.00015902,-0.0001
 6914,-0.00011692,0.00014224,0.00033967,-0.00004385,-0.00010447,-0.0001
 5119,-0.00003500,-0.00037105,0.00068559,0.00009519,-0.18670740,0.00879
 946,-0.03865377,0.51211695,-0.00082839,0.00899864,-0.00004524,-0.00004
 718,0.00004056,0.00001153,-0.00021178,0.00011416,-0.00004166,0.0053737
 2,0.02470614,0.00873806,-0.00100117,0.00537614,0.00048893,0.00085460,-
 0.00041396,0.00011107,-0.00105914,-0.00027501,-0.00024794,0.00001196,0
 .00024910,0.00006065,-0.00001306,0.00025763,-0.00003246,0.00000514,-0.
 00003043,0.00000879,0.00006717,-0.00034882,0.00001454,0.00647072,-0.09
 020931,-0.00089423,0.01698259,0.53106342,0.02937018,-0.00023175,0.0071
 3438,-0.00010582,0.00012452,-0.00001950,-0.00055564,0.00022969,0.00018
 467,-0.04081543,0.01022293,-0.02937003,0.00307475,-0.00042185,-0.00296
 988,0.00037116,-0.00016230,0.00014687,0.00098729,0.00006861,0.00029515
 ,0.00014263,0.00010020,0.00024965,-0.00013683,-0.00031830,0.00019468,0
 .00010310,0.00015605,-0.00003742,0.00041191,-0.00043917,-0.00017107,-0
 .03835490,-0.00003728,-0.08912851,-0.05404199,0.00078749,0.57759196,0.
 00205122,-0.00079025,0.00086659,-0.00010891,0.00029675,0.00004807,0.00
 003651,-0.00007089,-0.00001947,0.00008960,0.00005055,-0.00026669,0.009
 15411,0.01440769,0.00340469,-0.00090366,0.00265840,-0.00078223,-0.1290
 8232,-0.11880727,-0.03981959,-0.00084980,0.00065911,0.00016550,-0.0102
 0380,-0.02610538,-0.00710474,-0.00461893,0.00171084,-0.00210369,0.0004
 7817,0.00060217,0.00008265,-0.00060390,0.00032328,0.00071592,0.0000400
 7,-0.00000847,0.00001122,0.13382963,-0.00174949,0.00246337,0.00095941,
 0.00015462,-0.00081691,-0.00001967,0.00048434,-0.00017181,0.00003554,-
 0.00004836,0.00006580,0.00027786,-0.01595642,-0.01864717,-0.00726317,0
 .00384890,-0.00293726,-0.00076981,-0.11675012,-0.25094819,-0.06105622,
 0.00077312,0.00013891,0.00041441,0.00301161,0.00634717,0.00119105,0.00
 133662,0.00160091,-0.00075704,-0.00148966,0.00044982,-0.00028833,0.000
 63654,-0.00014387,-0.00052900,-0.00002661,-0.00006949,-0.00004652,0.12
 625507,0.26211148,0.00139601,0.00116173,-0.00416701,0.00004515,-0.0001
 0181,-0.00016164,0.00010107,-0.00000823,-0.00004514,-0.00035766,0.0001
 0314,-0.00012164,-0.00281199,-0.00110414,0.00410977,-0.00057791,-0.000
 80509,0.00521284,-0.03956405,-0.06160593,-0.05471290,0.00014322,0.0004
 5932,-0.00110244,-0.00190348,-0.00471482,0.00208020,-0.00213066,-0.000
 66252,0.00652223,-0.00024009,0.00010758,0.00066495,0.00088752,-0.00038
 131,0.00049389,0.00005959,0.00001121,-0.00012960,0.04393054,0.06699295
 ,0.04569796,-0.00203684,-0.00155580,-0.00007007,0.00038247,0.00108164,
 -0.00021640,0.00080623,0.00037901,-0.00015570,-0.00005533,-0.00006004,
 0.00051854,-0.00339270,0.00279234,-0.00141884,-0.01158145,-0.02572516,
 -0.00688641,-0.00053234,0.00046846,0.00015008,-0.12885148,-0.11842001,
 -0.03626918,-0.00068413,0.00335765,-0.00105057,0.01177978,0.01476549,0
 .00358382,-0.00117243,-0.00303429,0.00054924,0.00066084,-0.00003671,-0
 .00120543,-0.00009426,0.00006640,0.00008201,0.00006092,-0.00009631,0.0
 0011044,0.13322709,0.00037530,0.00034128,0.00005580,0.00319547,-0.0027
 3254,0.00047410,-0.00033904,0.00037268,-0.00000541,-0.00002501,0.00000
 232,-0.00000961,0.00127680,0.00117622,-0.00047673,0.00189961,0.0050853
 1,0.00056871,0.00080835,0.00009029,0.00034805,-0.12087213,-0.25701534,
 -0.05872155,0.00349064,-0.00294629,-0.00084556,-0.01433834,-0.01659400
 ,-0.00624897,-0.00025491,-0.00069492,0.00055552,0.00006577,0.00004694,
 0.00006824,0.00000602,-0.00001965,-0.00001303,-0.00011920,-0.00003968,
 0.00005571,0.12558423,0.27269078,-0.00031173,-0.00025075,0.00051861,-0
 .00001954,0.00023152,0.00070596,0.00059336,-0.00013608,0.00060549,0.00
 007748,-0.00007462,0.00006846,-0.00160748,-0.00031203,0.00566213,-0.00
 230056,-0.00540595,0.00204861,0.00010105,0.00024853,-0.00103488,-0.037
 07122,-0.05781257,-0.05520865,-0.00103892,-0.00085695,0.00694600,-0.00
 086949,-0.00059579,0.00489289,0.00038087,0.00035714,-0.00392831,-0.000
 06856,-0.00002621,-0.00027477,-0.00003338,0.00003497,0.00003087,0.0001
 0900,0.00007135,-0.00053712,0.04078282,0.06363492,0.04407889,-0.002153
 10,0.00125924,0.00062771,0.00009312,0.00009388,-0.00003524,-0.00000624
 ,0.00009296,-0.00004097,-0.00004216,-0.00003371,0.00051374,-0.00315349
 ,-0.00120783,-0.00248149,-0.00084285,-0.00045806,-0.00000292,-0.010509
 15,0.02802264,0.00152892,-0.00053248,-0.00300858,-0.00201960,-0.122614
 21,0.11796635,0.00261865,0.01170857,-0.01504866,-0.00110814,0.00001284
 ,-0.00025264,0.00023648,0.00052576,0.00021594,-0.00120891,-0.00011049,
 -0.00006277,0.00009681,0.00110228,-0.00051612,0.00097722,0.00037760,-0
 .00070885,0.00003323,0.12560469,0.00027348,0.00002756,-0.00001031,0.00
 009143,-0.00024033,-0.00003145,0.00020113,-0.00014277,-0.00005461,0.00
 004564,0.00001135,-0.00013928,-0.00076575,0.00191493,-0.00114105,-0.00
 059826,0.00021085,0.00009490,-0.00178453,0.00320566,-0.00057479,-0.003
 45867,-0.00263825,-0.00229621,0.11818147,-0.27448927,-0.01466453,0.014
 48281,-0.01685230,-0.00063595,-0.00023034,0.00020957,0.00020470,-0.000
 28047,-0.00000222,0.00027332,0.00001999,-0.00000613,-0.00001725,0.0000
 9769,0.00048687,0.00077927,0.00072117,-0.00081047,0.00007834,-0.126848
 59,0.28811213,-0.00019871,0.00053481,-0.00023793,-0.00002668,0.0000072
 5,0.00017381,0.00017284,-0.00004250,0.00020677,0.00004127,0.00004851,0
 .00005598,-0.00234058,-0.00115227,0.00707192,-0.00025550,-0.00017098,-
 0.00107836,-0.00329435,0.00527365,0.00477178,-0.00209138,-0.00213274,0
 .00644555,0.00260938,-0.01472891,-0.04166949,0.00375147,-0.00654140,0.
 00438063,0.00004650,0.00030034,-0.00110713,0.00005260,-0.00011116,-0.0
 0013279,-0.00001721,-0.00002124,0.00000058,0.00110881,0.00070473,-0.00
 382133,0.00027320,-0.00024515,-0.00030438,-0.00073298,0.01736325,0.028
 85370,-0.00051260,-0.00004232,0.00033049,0.00005745,0.00041296,0.00002
 651,-0.00054811,0.00049743,0.00009810,-0.00005081,-0.00002750,0.000164
 33,0.00086093,-0.00015342,0.00019740,0.00101470,0.00278168,-0.00082842
 ,0.00076435,-0.00242641,-0.00166528,-0.01004889,-0.00163356,-0.0028944
 9,-0.01004134,0.00287353,-0.00217298,-0.32865100,0.01003904,-0.0570577
 4,0.00005670,-0.00121400,-0.00028340,0.00023116,0.00005536,-0.00035429
 ,-0.00003454,0.00000298,0.00002039,-0.00054232,0.00023612,-0.00009970,
 0.00058346,-0.00012648,0.00097215,0.00059090,-0.00019441,0.00088750,0.
 34629718,-0.00009508,0.00029861,0.00022095,-0.00009057,-0.00019407,-0.
 00004354,0.00061706,-0.00069627,-0.00009787,0.00001243,0.00002368,0.00
 001976,-0.00004013,-0.00155144,-0.00019831,0.00204385,-0.00404732,-0.0
 0120350,-0.00199344,-0.00381113,-0.00215086,0.02848769,0.00230928,0.00
 558128,-0.02712862,0.00485473,-0.00515062,0.00976638,-0.05815432,-0.00
 148233,0.00090502,0.00104993,0.00030481,-0.00001965,-0.00002309,-0.000
 04774,-0.00000674,-0.00001233,0.00000726,-0.00123378,0.00017175,-0.000
 25073,-0.00067831,0.00101790,0.00070046,0.00049711,0.00096622,0.000903
 86,-0.01104313,0.05778532,0.00005887,0.00029788,-0.00102999,-0.0000307
 7,0.00005835,0.00000999,0.00005755,0.00008999,-0.00026153,-0.00005868,
 0.00000302,0.00004948,0.00014796,-0.00021572,-0.00030397,-0.00096362,-
 0.00132358,0.00674179,-0.00151329,-0.00218287,0.00640468,0.00187617,-0
 .00047309,0.00325177,-0.00697628,0.00077498,0.00171904,-0.05706483,-0.
 00140429,-0.04847517,-0.00002641,-0.00005774,0.00055339,0.00030515,-0.
 00004413,-0.00004189,0.00000987,-0.00000023,-0.00001820,-0.00033917,0.
 00004725,0.00007125,0.00088081,0.00079185,-0.00403781,0.00099086,0.000
 75395,-0.00359285,0.06265795,0.00288837,0.03894965,-0.00047957,0.00147
 164,0.00105041,-0.00009031,-0.00007476,-0.00000904,-0.00020683,-0.0000
 6636,0.00003094,-0.00505176,0.00441580,-0.00290943,0.00064955,0.000538
 96,0.00023711,0.00011256,-0.00001451,-0.00000004,-0.00010313,-0.000053
 92,-0.00005271,0.00002093,0.00002089,0.00002476,-0.00000907,0.00003465
 ,-0.00000633,-0.00000586,0.00000700,-0.00000576,0.00023613,0.00003233,
 0.00000981,0.00073821,-0.02390255,-0.02395939,-0.05192491,-0.01914496,
 -0.02006935,-0.00000124,-0.00001069,-0.00000016,0.00000649,-0.00000216
 ,0.00000409,-0.00001088,0.00000171,-0.00000355,-0.00000368,-0.00000021
 ,0.00000004,0.05211003,-0.00028766,0.00016605,0.00048783,-0.00010254,-
 0.00006160,0.00000052,-0.00031178,-0.00001126,-0.00000897,0.00150119,-
 0.00110160,0.00092174,-0.00018376,0.00003616,0.00014567,-0.00001377,0.
 00002555,-0.00000322,-0.00001576,-0.00001076,-0.00000210,0.00000633,0.
 00000522,-0.00000354,-0.00000298,0.00000672,-0.00000223,-0.00000002,0.
 00000803,-0.00000117,0.00019624,-0.00005433,-0.00000118,0.00184219,0.0
 0229157,0.00487219,-0.02062473,-0.14379483,-0.13230044,0.00000390,-0.0
 0000344,-0.00000077,0.00000117,-0.00000174,-0.00000174,-0.00000181,0.0
 0000033,0.00000021,-0.00000169,0.00000065,0.00000087,0.01944609,0.1552
 7856,0.00194787,0.00033432,0.00064372,0.00001004,0.00002624,-0.0000026
 1,0.00001581,-0.00000209,0.00002449,-0.00347242,0.00085703,0.00039399,
 -0.00045881,0.00066931,0.00016530,0.00020881,-0.00002757,0.00003708,-0
 .00004460,-0.00005511,-0.00000449,0.00000655,0.00006846,-0.00001105,0.
 00000241,0.00000504,-0.00000848,0.00000174,-0.00000882,0.00000812,0.00
 002773,-0.00004722,-0.00000334,-0.00091659,-0.00653659,-0.01325795,-0.
 02170761,-0.13279443,-0.20856967,-0.00000617,-0.00000094,-0.00000027,0
 .00001711,-0.00000130,0.00000296,0.00000156,-0.00000153,0.00000072,0.0
 0000227,-0.00000106,0.00000072,0.02641207,0.14335845,0.22545296,-0.008
 57527,0.00029555,-0.00175610,-0.00009033,-0.00022596,-0.00000510,0.000
 00240,-0.00022141,-0.00005291,0.00357063,0.00050593,0.00016980,0.00091
 754,0.00025658,0.00114689,-0.00023925,0.00001751,-0.00005233,-0.000643
 58,-0.00002579,-0.00012412,-0.00009302,-0.00005345,-0.00006724,0.00010
 735,0.00017844,-0.00001671,-0.00008493,-0.00010237,-0.00001700,0.00004
 485,0.00041255,0.00005292,-0.01809620,-0.00694164,0.02405363,-0.176045
 37,-0.03727397,0.12802074,0.00001923,-0.00001219,0.00003019,-0.0000507
 8,0.00000326,-0.00001370,-0.00006220,0.00001355,-0.00000921,-0.0000192
 8,-0.00000277,0.00000186,0.00390774,0.00238538,-0.00390877,0.19165705,
 0.00121010,0.00084271,0.00027978,-0.00009582,-0.00004875,0.00001178,-0
 .00029762,-0.00003889,-0.00008748,-0.00037354,-0.00013493,-0.00080285,
 0.00032578,0.00080908,0.00000366,0.00013774,-0.00003116,0.00002547,-0.
 00011419,-0.00002543,-0.00003723,0.00001353,0.00004232,0.00003039,-0.0
 0001586,0.00002604,0.00001544,0.00000631,0.00000992,-0.00000295,0.0002
 5984,-0.00005288,-0.00001597,0.00393806,-0.00216089,-0.00246935,-0.039
 50914,-0.05706304,0.03846239,-0.00000071,-0.00000534,-0.00000609,0.000
 01440,-0.00000187,0.00000349,-0.00000516,-0.00000087,-0.00000145,-0.00
 000013,-0.00000020,-0.00000119,0.01496383,0.00481509,-0.01253489,0.040
 62093,0.05663548,-0.00329827,0.00042517,0.00034418,-0.00000081,-0.0000
 4387,-0.00000471,0.00007488,-0.00004143,0.00000018,0.00032917,-0.00010
 079,0.00149321,-0.00035988,0.00032932,0.00057470,0.00003331,-0.0000154
 0,0.00001675,-0.00016319,-0.00003194,-0.00004920,-0.00002168,0.0000141
 7,-0.00004222,0.00002584,0.00005717,-0.00004109,-0.00002211,-0.0000305
 3,0.00000218,-0.00004029,0.00011085,0.00002991,-0.01057333,-0.00375818
 ,0.00820675,0.13608412,0.03872067,-0.18645970,-0.00000018,0.00000265,0
 .00002340,-0.00000765,-0.00000160,-0.00000350,-0.00001760,0.00000396,0
 .00000104,-0.00000451,-0.00000159,0.00000335,0.01547075,0.00653557,-0.
 01422228,-0.14305418,-0.04274475,0.19654186,-0.00125889,-0.00164169,0.
 00035960,0.00033086,0.00014135,-0.00002377,0.00094799,-0.00002886,0.00
 024483,-0.00329528,-0.00390148,-0.00265983,0.00053567,-0.00124553,0.00
 016420,-0.00018420,0.00005620,-0.00004363,0.00013629,0.00003717,0.0000
 1049,-0.00006650,-0.00008331,-0.00004943,0.00005124,-0.00003004,0.0000
 1705,-0.00002340,-0.00005126,-0.00000610,-0.00079355,0.00032707,0.0000
 3289,-0.00131828,0.03392527,-0.00917017,-0.04951884,0.02981759,-0.0086
 2347,0.00001231,-0.00000742,-0.00000083,-0.00003295,0.00000518,-0.0000
 1422,0.00000139,0.00000346,0.00000070,-0.00000184,-0.00000222,-0.00000
 095,0.00010328,-0.00383887,0.00186104,0.00377458,-0.02108062,0.0055470
 6,0.05060928,-0.00036253,0.00037978,-0.00009180,-0.00006603,-0.0000517
 0,0.00000488,-0.00032313,-0.00005986,-0.00006580,0.00000231,-0.0004371
 3,-0.00164868,0.00045537,0.00025507,-0.00002868,-0.00000013,-0.0000538
 7,0.00000845,-0.00009888,0.00000742,-0.00001967,-0.00000202,0.00002062
 ,-0.00000130,0.00000283,0.00001343,0.00002809,-0.00000986,-0.00000537,
 -0.00000852,0.00010114,0.00000408,-0.00001707,0.00147776,-0.00226939,0
 .00253246,0.02870488,-0.27857117,0.08381747,0.00000422,-0.00000264,-0.
 00000486,0.00000045,-0.00000516,0.00000389,-0.00000595,0.00000150,-0.0
 0000153,-0.00000178,0.00000046,-0.00000175,0.00232219,-0.01761104,0.00
 669420,0.00014882,-0.00363157,0.00056915,-0.03235150,0.30200584,0.0014
 0630,-0.00055241,0.00010741,0.00018101,0.00011867,0.00000554,0.0005199
 5,0.00000347,-0.00001878,-0.00289618,-0.00230159,-0.00053544,-0.000332
 95,-0.00028047,-0.00008172,0.00004057,0.00001724,-0.00001892,0.0001367
 5,0.00001509,0.00003995,-0.00000129,-0.00000757,0.00000461,0.00000586,
 -0.00004134,-0.00001591,0.00000254,-0.00000218,0.00000549,-0.00037023,
 0.00006378,0.00002139,-0.00219715,0.01378618,-0.00816058,-0.00823607,0
 .08509544,-0.06896387,-0.00000586,0.00000705,0.00000259,0.00000132,0.0
 0000291,-0.00000270,0.00001175,-0.00000117,0.00000142,0.00000396,-0.00
 000084,0.00000121,0.00377541,-0.02399661,0.00934929,-0.00439683,0.0198
 7128,-0.00641294,0.01235702,-0.09176727,0.07467642,-0.00003469,0.00018
 563,0.00008483,-0.18932801,0.23124590,0.02211128,-0.00270808,0.0036829
 6,0.00019783,-0.00000760,0.00001922,0.00002018,0.00086242,-0.00047077,
 0.00002926,-0.00288925,-0.00377422,-0.00022278,-0.00007223,-0.00021125
 ,-0.00011136,-0.00074729,0.00017419,-0.00020488,-0.00012073,0.00005667
 ,0.00001233,0.00027049,0.00018431,-0.00002502,0.02104249,-0.02985902,-
 0.00254670,0.00001031,-0.00006449,-0.00002940,-0.00000829,-0.00000196,
 0.00001124,0.00004084,-0.00007355,0.00000557,0.00059982,0.00007549,0.0
 0029474,0.00002009,0.00002748,0.00002588,-0.00000244,0.00000512,-0.000
 01309,0.00000233,0.00000289,-0.00000006,-0.00000114,0.00000227,-0.0000
 0147,-0.00000915,0.00000183,-0.00000588,0.17308010,0.00018204,0.000447
 21,0.00001052,0.18377644,-0.34071074,-0.02944042,0.00648247,0.00817001
 ,0.00073346,0.00009521,0.00016800,-0.00013882,0.00094034,-0.00116042,0
 .00022798,-0.00484016,-0.00127317,-0.00065936,-0.00055377,-0.00005002,
 -0.00018807,-0.00067190,0.00083424,-0.00018810,-0.00003389,0.00018708,
 0.00004714,0.00019121,0.00025986,0.00005813,0.01561500,-0.04758813,-0.
 00384251,-0.00039316,-0.00036868,0.00023546,0.00001641,0.00000835,0.00
 001128,0.00006628,-0.00005029,-0.00002463,0.00037421,0.00003794,0.0001
 0807,0.00001059,0.00003563,0.00001272,-0.00003427,0.00001165,-0.000001
 91,0.00001504,0.00001665,-0.00000149,0.00002106,0.00001518,0.00000143,
 -0.00005049,0.00001071,-0.00002964,-0.20120868,0.38099893,-0.00011841,
 -0.00007935,0.00005576,0.01866732,-0.03127031,-0.01586852,0.00070502,0
 .00079673,-0.00473612,0.00001783,0.00005051,-0.00000535,-0.00011942,0.
 00046934,0.00074820,-0.00004522,-0.00078087,0.00417222,0.00039173,-0.0
 0004292,-0.00027971,-0.00023010,-0.00004196,-0.00022810,-0.00021810,-0
 .00013879,-0.00001223,0.00000134,0.00026289,0.00015960,0.00026584,-0.0
 0231211,0.00231060,-0.00001637,-0.00003199,-0.00002366,-0.00001130,-0.
 00000593,0.00000864,0.00000479,0.00002645,-0.00007999,0.00033087,0.000
 01309,-0.00022874,0.00001093,0.00001644,-0.00001963,-0.00000026,0.0000
 0224,0.00000511,0.00000034,-0.00000109,0.00000078,-0.00000184,0.000000
 51,-0.00000186,-0.00000249,-0.00000164,-0.00000445,-0.01963251,0.03306
 877,0.01402749\\-0.00000776,-0.00000282,-0.00001846,0.00000152,0.00000
 421,0.00000022,0.00000774,0.00000234,0.00000131,0.00000053,0.00000036,
 -0.00000280,0.00001832,0.00001186,0.00001005,-0.00000121,-0.00001089,-
 0.00000207,0.00000118,-0.00000480,-0.00000046,0.00000287,0.00000047,0.
 00000234,-0.00000483,-0.00000335,-0.00000077,-0.00000100,0.00000364,0.
 00000136,-0.00001319,-0.00000117,-0.00000225,-0.00000694,-0.00000111,0
 .00001271,0.00000084,0.00000033,-0.00000066,-0.00000091,0.00000029,-0.
 00000030,0.00000107,-0.00000240,0.00000059,0.00000068,-0.00000005,0.00
 000130,0.00000022,-0.00000165,0.00000102,0.00000023,0.00000076,-0.0000
 0126,-0.00000068,0.00000159,-0.00000131,-0.00000008,0.00000134,-0.0000
 0124,0.00000141,0.00000105,0.00000069\\\@
 The archive entry for this job was punched.


 NOTHING WILL BE ATTEMPTED IF ALL POSSIBLE OBJECTIONS
 MUST FIRST BE OVERCOME.

                               -- THE GOLDEN PRINCIPLE,
                    PAUL DICKSON'S "THE OFFICIAL RULES"
 Job cpu time:       0 days  2 hours  6 minutes 30.7 seconds.
 Elapsed time:       0 days  0 hours  1 minutes 11.8 seconds.
 File lengths (MBytes):  RWF=    294 Int=      0 D2E=      0 Chk=     18 Scr=      1
 Normal termination of Gaussian 16 at Mon Mar  2 06:02:05 2026.
