SLURM_NODELIST orfoz200
NUMBER OF TASKS 1
NUMBER OF CORES=112
 Entering Gaussian System, Link 0=/arf/sw/apps/gaussian/avx/g16/g16
 Initial command:
 /arf/sw/apps/gaussian/avx/g16/l1.exe "/tmp/5343238/Gau-3884624.inp" -scrdir="/tmp/5343238/"
 Entering Link 1 = /arf/sw/apps/gaussian/avx/g16/l1.exe PID=   3884625.
  
 Copyright (c) 1988-2019, Gaussian, Inc.  All Rights Reserved.
  
 This is part of the Gaussian(R) 16 program.  It is based on
 the Gaussian(R) 09 system (copyright 2009, Gaussian, Inc.),
 the Gaussian(R) 03 system (copyright 2003, Gaussian, Inc.),
 the Gaussian(R) 98 system (copyright 1998, Gaussian, Inc.),
 the Gaussian(R) 94 system (copyright 1995, Gaussian, Inc.),
 the Gaussian 92(TM) system (copyright 1992, Gaussian, Inc.),
 the Gaussian 90(TM) system (copyright 1990, Gaussian, Inc.),
 the Gaussian 88(TM) system (copyright 1988, Gaussian, Inc.),
 the Gaussian 86(TM) system (copyright 1986, Carnegie Mellon
 University), and the Gaussian 82(TM) system (copyright 1983,
 Carnegie Mellon University). Gaussian is a federally registered
 trademark of Gaussian, Inc.
  
 This software contains proprietary and confidential information,
 including trade secrets, belonging to Gaussian, Inc.
  
 This software is provided under written license and may be
 used, copied, transmitted, or stored only in accord with that
 written license.
  
 The following legend is applicable only to US Government
 contracts under FAR:
  
                    RESTRICTED RIGHTS LEGEND
  
 Use, reproduction and disclosure by the US Government is
 subject to restrictions as set forth in subparagraphs (a)
 and (c) of the Commercial Computer Software - Restricted
 Rights clause in FAR 52.227-19.
  
 Gaussian, Inc.
 340 Quinnipiac St., Bldg. 40, Wallingford CT 06492
  
  
 ---------------------------------------------------------------
 Warning -- This program may not be used in any manner that
 competes with the business of Gaussian, Inc. or will provide
 assistance to any competitor of Gaussian, Inc.  The licensee
 of this program is prohibited from giving any competitor of
 Gaussian, Inc. access to this program.  By using this program,
 the user acknowledges that Gaussian, Inc. is engaged in the
 business of creating and licensing software in the field of
 computational chemistry and represents and warrants to the
 licensee that it is not a competitor of Gaussian, Inc. and that
 it will not use this program in any manner prohibited above.
 ---------------------------------------------------------------
  

 Cite this work as:
 Gaussian 16, Revision C.01,
 M. J. Frisch, G. W. Trucks, H. B. Schlegel, G. E. Scuseria, 
 M. A. Robb, J. R. Cheeseman, G. Scalmani, V. Barone, 
 G. A. Petersson, H. Nakatsuji, X. Li, M. Caricato, A. V. Marenich, 
 J. Bloino, B. G. Janesko, R. Gomperts, B. Mennucci, H. P. Hratchian, 
 J. V. Ortiz, A. F. Izmaylov, J. L. Sonnenberg, D. Williams-Young, 
 F. Ding, F. Lipparini, F. Egidi, J. Goings, B. Peng, A. Petrone, 
 T. Henderson, D. Ranasinghe, V. G. Zakrzewski, J. Gao, N. Rega, 
 G. Zheng, W. Liang, M. Hada, M. Ehara, K. Toyota, R. Fukuda, 
 J. Hasegawa, M. Ishida, T. Nakajima, Y. Honda, O. Kitao, H. Nakai, 
 T. Vreven, K. Throssell, J. A. Montgomery, Jr., J. E. Peralta, 
 F. Ogliaro, M. J. Bearpark, J. J. Heyd, E. N. Brothers, K. N. Kudin, 
 V. N. Staroverov, T. A. Keith, R. Kobayashi, J. Normand, 
 K. Raghavachari, A. P. Rendell, J. C. Burant, S. S. Iyengar, 
 J. Tomasi, M. Cossi, J. M. Millam, M. Klene, C. Adamo, R. Cammi, 
 J. W. Ochterski, R. L. Martin, K. Morokuma, O. Farkas, 
 J. B. Foresman, and D. J. Fox, Gaussian, Inc., Wallingford CT, 2019.
 
 ******************************************
 Gaussian 16:  ES64L-G16RevC.01  3-Jul-2019
                28-Feb-2026 
 ******************************************
 %nprocshared=112
 Will use up to  112 processors via shared memory.
 %mem=10GB
 %chk=losartan.chk
 ----------------------------------------------------------------------
 # opt freq b3lyp/6-311++g(d,p) scrf=(pcm,solvent=water) geom=connectiv
 ity
 ----------------------------------------------------------------------
 1/18=20,19=15,26=3,38=1,57=2/1,3;
 2/9=110,12=2,17=6,18=5,40=1/2;
 3/5=4,6=6,7=1111,11=2,25=1,30=1,70=2201,71=1,72=1,74=-5/1,2,3;
 4//1;
 5/5=2,38=5,53=1/2;
 6/7=2,8=2,9=2,10=2,28=1/1;
 7//1,2,3,16;
 1/18=20,19=15,26=3/3(2);
 2/9=110/2;
 99//99;
 2/9=110/2;
 3/5=4,6=6,7=1111,11=2,25=1,30=1,70=2205,71=1,72=1,74=-5/1,2,3;
 4/5=5,16=3,69=1/1;
 5/5=2,38=5,53=1/2;
 7//1,2,3,16;
 1/18=20,19=15,26=3/3(-5);
 2/9=110/2;
 6/7=2,8=2,9=2,10=2,19=2,28=1/1;
 99/9=1/99;
 --------
 lovartan
 --------
 Symbolic Z-matrix:
 Charge =  0 Multiplicity = 1
 Cl                    4.3216    3.3613   -1.2679 
 O                     1.1947    3.3311    1.0922 
 N                     2.8016    0.5727    0.8904 
 N                     4.0016    0.6993   -0.9739 
 N                    -2.9405    1.6371   -1.6707 
 N                    -2.5284   -0.4397   -2.4738 
 N                    -2.1283    1.6149   -2.7369 
 N                    -1.8563    0.4054   -3.2459 
 C                     3.416    -0.0809   -0.1197 
 C                     3.3934   -1.5864   -0.2022 
 C                     2.0674   -0.0054    1.9929 
 C                     4.7765   -2.1515   -0.5375 
 C                     3.0093    1.9049    0.6689 
 C                     0.6093   -0.1665    1.6574 
 C                     4.7395   -3.6751   -0.6547 
 C                     3.7522    1.9582   -0.4869 
 C                     2.4915    2.9604    1.5595 
 C                     0.1681   -1.3458    1.0726 
 C                    -0.2752    0.8662    1.937 
 C                    -2.0807   -0.4637    1.0381 
 C                    -1.1834   -1.4951    0.7614 
 C                    -1.6267    0.717     1.6259 
 C                     6.1016   -4.2387   -1.027 
 C                    -3.4828   -0.619     0.716 
 C                    -3.9999   -0.2386   -0.5248 
 C                    -4.3317   -1.166     1.6812 
 C                    -5.3576   -0.4041   -0.7985 
 C                    -5.6894   -1.3314    1.4075 
 C                    -3.1609    0.3296   -1.5483 
 C                    -6.2024   -0.9504    0.1677 
 H                     3.0679   -2.0652    0.7212 
 H                     2.6797   -1.8715   -0.9849 
 H                     2.5195   -0.9562    2.2886 
 H                     2.1912    0.6239    2.8799 
 H                     5.4956   -1.8568    0.2376 
 H                     5.1363   -1.7242   -1.4821 
 H                     4.4154   -4.1144    0.2959 
 H                     4.0088   -3.9727   -1.4157 
 H                     3.128     3.8512    1.5291 
 H                     2.4184    2.6684    2.6085 
 H                     0.8423   -2.1692    0.8663 
 H                     0.0421    1.7611    2.4581 
 H                    -1.5215   -2.4234    0.307 
 H                    -2.3155    1.5246    1.8623 
 H                     6.8512   -3.9843   -0.2708 
 H                     6.4388   -3.8456   -1.9913 
 H                     6.0525   -5.3295   -1.1033 
 H                    -3.9512   -1.4693    2.6541 
 H                     1.2997    3.7266    0.2097 
 H                    -5.7751   -0.1132   -1.7597 
 H                    -6.3473   -1.7568    2.1597 
 H                    -7.2596   -1.0795   -0.0453 
 H                    -1.7412    2.464    -3.1347 
 

 GradGradGradGradGradGradGradGradGradGradGradGradGradGradGradGradGradGrad
 Berny optimization.
 Initialization pass.
                           ----------------------------
                           !    Initial Parameters    !
                           ! (Angstroms and Degrees)  !
 --------------------------                            --------------------------
 ! Name  Definition              Value          Derivative Info.                !
 --------------------------------------------------------------------------------
 ! R1    R(1,16)                 1.7038         estimate D2E/DX2                !
 ! R2    R(2,17)                 1.4274         estimate D2E/DX2                !
 ! R3    R(2,49)                 0.9728         estimate D2E/DX2                !
 ! R4    R(3,9)                  1.3509         estimate D2E/DX2                !
 ! R5    R(3,11)                 1.4453         estimate D2E/DX2                !
 ! R6    R(3,13)                 1.3664         estimate D2E/DX2                !
 ! R7    R(4,9)                  1.2966         estimate D2E/DX2                !
 ! R8    R(4,16)                 1.3727         estimate D2E/DX2                !
 ! R9    R(5,7)                  1.3405         estimate D2E/DX2                !
 ! R10   R(5,29)                 1.3316         estimate D2E/DX2                !
 ! R11   R(6,8)                  1.3274         estimate D2E/DX2                !
 ! R12   R(6,29)                 1.3596         estimate D2E/DX2                !
 ! R13   R(7,8)                  1.3401         estimate D2E/DX2                !
 ! R14   R(7,53)                 1.0144         estimate D2E/DX2                !
 ! R15   R(9,10)                 1.5079         estimate D2E/DX2                !
 ! R16   R(10,12)                1.5313         estimate D2E/DX2                !
 ! R17   R(10,31)                1.0899         estimate D2E/DX2                !
 ! R18   R(10,32)                1.0969         estimate D2E/DX2                !
 ! R19   R(11,14)                1.5048         estimate D2E/DX2                !
 ! R20   R(11,33)                1.0936         estimate D2E/DX2                !
 ! R21   R(11,34)                1.0946         estimate D2E/DX2                !
 ! R22   R(12,15)                1.5285         estimate D2E/DX2                !
 ! R23   R(12,35)                1.0976         estimate D2E/DX2                !
 ! R24   R(12,36)                1.0974         estimate D2E/DX2                !
 ! R25   R(13,16)                1.375          estimate D2E/DX2                !
 ! R26   R(13,17)                1.4749         estimate D2E/DX2                !
 ! R27   R(14,18)                1.3883         estimate D2E/DX2                !
 ! R28   R(14,19)                1.3882         estimate D2E/DX2                !
 ! R29   R(15,23)                1.5204         estimate D2E/DX2                !
 ! R30   R(15,37)                1.0962         estimate D2E/DX2                !
 ! R31   R(15,38)                1.0962         estimate D2E/DX2                !
 ! R32   R(17,39)                1.0953         estimate D2E/DX2                !
 ! R33   R(17,40)                1.0913         estimate D2E/DX2                !
 ! R34   R(18,21)                1.3949         estimate D2E/DX2                !
 ! R35   R(18,41)                1.084          estimate D2E/DX2                !
 ! R36   R(19,22)                1.3948         estimate D2E/DX2                !
 ! R37   R(19,42)                1.0831         estimate D2E/DX2                !
 ! R38   R(20,21)                1.3948         estimate D2E/DX2                !
 ! R39   R(20,22)                1.3949         estimate D2E/DX2                !
 ! R40   R(20,24)                1.447          estimate D2E/DX2                !
 ! R41   R(21,43)                1.0874         estimate D2E/DX2                !
 ! R42   R(22,44)                1.0875         estimate D2E/DX2                !
 ! R43   R(23,45)                1.0947         estimate D2E/DX2                !
 ! R44   R(23,46)                1.0946         estimate D2E/DX2                !
 ! R45   R(23,47)                1.0946         estimate D2E/DX2                !
 ! R46   R(24,25)                1.397          estimate D2E/DX2                !
 ! R47   R(24,26)                1.3969         estimate D2E/DX2                !
 ! R48   R(25,27)                1.3949         estimate D2E/DX2                !
 ! R49   R(25,29)                1.4403         estimate D2E/DX2                !
 ! R50   R(26,28)                1.3949         estimate D2E/DX2                !
 ! R51   R(26,48)                1.0878         estimate D2E/DX2                !
 ! R52   R(27,30)                1.3949         estimate D2E/DX2                !
 ! R53   R(27,50)                1.0876         estimate D2E/DX2                !
 ! R54   R(28,30)                1.3948         estimate D2E/DX2                !
 ! R55   R(28,51)                1.0861         estimate D2E/DX2                !
 ! R56   R(30,52)                1.0861         estimate D2E/DX2                !
 ! A1    A(17,2,49)            107.7297         estimate D2E/DX2                !
 ! A2    A(9,3,11)             127.438          estimate D2E/DX2                !
 ! A3    A(9,3,13)             106.3423         estimate D2E/DX2                !
 ! A4    A(11,3,13)            126.2196         estimate D2E/DX2                !
 ! A5    A(9,4,16)             103.654          estimate D2E/DX2                !
 ! A6    A(7,5,29)              99.0407         estimate D2E/DX2                !
 ! A7    A(8,6,29)             105.7392         estimate D2E/DX2                !
 ! A8    A(5,7,8)              116.1048         estimate D2E/DX2                !
 ! A9    A(5,7,53)             121.9544         estimate D2E/DX2                !
 ! A10   A(8,7,53)             121.9408         estimate D2E/DX2                !
 ! A11   A(6,8,7)              104.531          estimate D2E/DX2                !
 ! A12   A(3,9,4)              114.0077         estimate D2E/DX2                !
 ! A13   A(3,9,10)             121.14           estimate D2E/DX2                !
 ! A14   A(4,9,10)             124.8523         estimate D2E/DX2                !
 ! A15   A(9,10,12)            111.5241         estimate D2E/DX2                !
 ! A16   A(9,10,31)            113.3736         estimate D2E/DX2                !
 ! A17   A(9,10,32)            107.9554         estimate D2E/DX2                !
 ! A18   A(12,10,31)           107.0469         estimate D2E/DX2                !
 ! A19   A(12,10,32)           109.6042         estimate D2E/DX2                !
 ! A20   A(31,10,32)           107.22           estimate D2E/DX2                !
 ! A21   A(3,11,14)            111.4061         estimate D2E/DX2                !
 ! A22   A(3,11,33)            110.123          estimate D2E/DX2                !
 ! A23   A(3,11,34)            109.3141         estimate D2E/DX2                !
 ! A24   A(14,11,33)           111.5792         estimate D2E/DX2                !
 ! A25   A(14,11,34)           110.5975         estimate D2E/DX2                !
 ! A26   A(33,11,34)           103.5321         estimate D2E/DX2                !
 ! A27   A(10,12,15)           111.2707         estimate D2E/DX2                !
 ! A28   A(10,12,35)           109.7581         estimate D2E/DX2                !
 ! A29   A(10,12,36)           109.9333         estimate D2E/DX2                !
 ! A30   A(15,12,35)           109.7325         estimate D2E/DX2                !
 ! A31   A(15,12,36)           109.2718         estimate D2E/DX2                !
 ! A32   A(35,12,36)           106.768          estimate D2E/DX2                !
 ! A33   A(3,13,16)            104.8441         estimate D2E/DX2                !
 ! A34   A(3,13,17)            123.1264         estimate D2E/DX2                !
 ! A35   A(16,13,17)           132.0295         estimate D2E/DX2                !
 ! A36   A(11,14,18)           119.5231         estimate D2E/DX2                !
 ! A37   A(11,14,19)           119.527          estimate D2E/DX2                !
 ! A38   A(18,14,19)           120.9499         estimate D2E/DX2                !
 ! A39   A(12,15,23)           111.5052         estimate D2E/DX2                !
 ! A40   A(12,15,37)           109.8839         estimate D2E/DX2                !
 ! A41   A(12,15,38)           109.8753         estimate D2E/DX2                !
 ! A42   A(23,15,37)           109.1879         estimate D2E/DX2                !
 ! A43   A(23,15,38)           109.0597         estimate D2E/DX2                !
 ! A44   A(37,15,38)           107.2258         estimate D2E/DX2                !
 ! A45   A(1,16,4)             122.1352         estimate D2E/DX2                !
 ! A46   A(1,16,13)            126.7128         estimate D2E/DX2                !
 ! A47   A(4,16,13)            111.1519         estimate D2E/DX2                !
 ! A48   A(2,17,13)            107.8858         estimate D2E/DX2                !
 ! A49   A(2,17,39)            107.9183         estimate D2E/DX2                !
 ! A50   A(2,17,40)            108.8633         estimate D2E/DX2                !
 ! A51   A(13,17,39)           111.1778         estimate D2E/DX2                !
 ! A52   A(13,17,40)           114.3587         estimate D2E/DX2                !
 ! A53   A(39,17,40)           106.4526         estimate D2E/DX2                !
 ! A54   A(14,18,21)           119.5256         estimate D2E/DX2                !
 ! A55   A(14,18,41)           121.8529         estimate D2E/DX2                !
 ! A56   A(21,18,41)           118.6099         estimate D2E/DX2                !
 ! A57   A(14,19,22)           119.5298         estimate D2E/DX2                !
 ! A58   A(14,19,42)           121.6627         estimate D2E/DX2                !
 ! A59   A(22,19,42)           118.6556         estimate D2E/DX2                !
 ! A60   A(21,20,22)           120.0085         estimate D2E/DX2                !
 ! A61   A(21,20,24)           119.9892         estimate D2E/DX2                !
 ! A62   A(22,20,24)           120.0022         estimate D2E/DX2                !
 ! A63   A(18,21,20)           119.9935         estimate D2E/DX2                !
 ! A64   A(18,21,43)           119.0675         estimate D2E/DX2                !
 ! A65   A(20,21,43)           120.9386         estimate D2E/DX2                !
 ! A66   A(19,22,20)           119.9928         estimate D2E/DX2                !
 ! A67   A(19,22,44)           119.065          estimate D2E/DX2                !
 ! A68   A(20,22,44)           120.9354         estimate D2E/DX2                !
 ! A69   A(15,23,45)           110.9867         estimate D2E/DX2                !
 ! A70   A(15,23,46)           111.0136         estimate D2E/DX2                !
 ! A71   A(15,23,47)           110.2613         estimate D2E/DX2                !
 ! A72   A(45,23,46)           108.3092         estimate D2E/DX2                !
 ! A73   A(45,23,47)           108.0864         estimate D2E/DX2                !
 ! A74   A(46,23,47)           108.0776         estimate D2E/DX2                !
 ! A75   A(20,24,25)           121.8129         estimate D2E/DX2                !
 ! A76   A(20,24,26)           118.4934         estimate D2E/DX2                !
 ! A77   A(25,24,26)           119.6937         estimate D2E/DX2                !
 ! A78   A(24,25,27)           120.149          estimate D2E/DX2                !
 ! A79   A(24,25,29)           121.5318         estimate D2E/DX2                !
 ! A80   A(27,25,29)           118.3192         estimate D2E/DX2                !
 ! A81   A(24,26,28)           120.1558         estimate D2E/DX2                !
 ! A82   A(24,26,48)           120.9689         estimate D2E/DX2                !
 ! A83   A(28,26,48)           118.8753         estimate D2E/DX2                !
 ! A84   A(25,27,30)           120.004          estimate D2E/DX2                !
 ! A85   A(25,27,50)           121.0197         estimate D2E/DX2                !
 ! A86   A(30,27,50)           118.9763         estimate D2E/DX2                !
 ! A87   A(26,28,30)           120.0018         estimate D2E/DX2                !
 ! A88   A(26,28,51)           120.0106         estimate D2E/DX2                !
 ! A89   A(30,28,51)           119.9876         estimate D2E/DX2                !
 ! A90   A(5,29,6)             114.5843         estimate D2E/DX2                !
 ! A91   A(5,29,25)            123.3068         estimate D2E/DX2                !
 ! A92   A(6,29,25)            122.1089         estimate D2E/DX2                !
 ! A93   A(27,30,28)           119.9958         estimate D2E/DX2                !
 ! A94   A(27,30,52)           120.0145         estimate D2E/DX2                !
 ! A95   A(28,30,52)           119.9897         estimate D2E/DX2                !
 ! D1    D(49,2,17,13)         -64.6384         estimate D2E/DX2                !
 ! D2    D(49,2,17,39)          55.5808         estimate D2E/DX2                !
 ! D3    D(49,2,17,40)         170.7332         estimate D2E/DX2                !
 ! D4    D(11,3,9,4)          -179.9841         estimate D2E/DX2                !
 ! D5    D(11,3,9,10)            0.0476         estimate D2E/DX2                !
 ! D6    D(13,3,9,4)             0.0044         estimate D2E/DX2                !
 ! D7    D(13,3,9,10)         -179.9639         estimate D2E/DX2                !
 ! D8    D(9,3,11,14)          -90.0239         estimate D2E/DX2                !
 ! D9    D(9,3,11,33)           34.3337         estimate D2E/DX2                !
 ! D10   D(9,3,11,34)          147.4425         estimate D2E/DX2                !
 ! D11   D(13,3,11,14)          89.9897         estimate D2E/DX2                !
 ! D12   D(13,3,11,33)        -145.6527         estimate D2E/DX2                !
 ! D13   D(13,3,11,34)         -32.5439         estimate D2E/DX2                !
 ! D14   D(9,3,13,16)           -0.0093         estimate D2E/DX2                !
 ! D15   D(9,3,13,17)         -179.9917         estimate D2E/DX2                !
 ! D16   D(11,3,13,16)         179.9795         estimate D2E/DX2                !
 ! D17   D(11,3,13,17)          -0.0029         estimate D2E/DX2                !
 ! D18   D(16,4,9,3)             0.0025         estimate D2E/DX2                !
 ! D19   D(16,4,9,10)          179.9694         estimate D2E/DX2                !
 ! D20   D(9,4,16,1)          -179.9929         estimate D2E/DX2                !
 ! D21   D(9,4,16,13)           -0.0087         estimate D2E/DX2                !
 ! D22   D(29,5,7,8)            -0.0237         estimate D2E/DX2                !
 ! D23   D(29,5,7,53)         -179.9554         estimate D2E/DX2                !
 ! D24   D(7,5,29,6)             0.0104         estimate D2E/DX2                !
 ! D25   D(7,5,29,25)         -179.9205         estimate D2E/DX2                !
 ! D26   D(29,6,8,7)            -0.0187         estimate D2E/DX2                !
 ! D27   D(8,6,29,5)             0.0054         estimate D2E/DX2                !
 ! D28   D(8,6,29,25)          179.9372         estimate D2E/DX2                !
 ! D29   D(5,7,8,6)              0.0282         estimate D2E/DX2                !
 ! D30   D(53,7,8,6)           179.9599         estimate D2E/DX2                !
 ! D31   D(3,9,10,12)         -135.034          estimate D2E/DX2                !
 ! D32   D(3,9,10,31)          -14.1196         estimate D2E/DX2                !
 ! D33   D(3,9,10,32)          104.5053         estimate D2E/DX2                !
 ! D34   D(4,9,10,12)           45.0013         estimate D2E/DX2                !
 ! D35   D(4,9,10,31)          165.9158         estimate D2E/DX2                !
 ! D36   D(4,9,10,32)          -75.4593         estimate D2E/DX2                !
 ! D37   D(9,10,12,15)        -178.5562         estimate D2E/DX2                !
 ! D38   D(9,10,12,35)          59.7885         estimate D2E/DX2                !
 ! D39   D(9,10,12,36)         -57.3629         estimate D2E/DX2                !
 ! D40   D(31,10,12,15)         56.9029         estimate D2E/DX2                !
 ! D41   D(31,10,12,35)        -64.7524         estimate D2E/DX2                !
 ! D42   D(31,10,12,36)        178.0962         estimate D2E/DX2                !
 ! D43   D(32,10,12,15)        -59.0677         estimate D2E/DX2                !
 ! D44   D(32,10,12,35)        179.277          estimate D2E/DX2                !
 ! D45   D(32,10,12,36)         62.1256         estimate D2E/DX2                !
 ! D46   D(3,11,14,18)          90.0028         estimate D2E/DX2                !
 ! D47   D(3,11,14,19)         -89.9925         estimate D2E/DX2                !
 ! D48   D(33,11,14,18)        -33.5308         estimate D2E/DX2                !
 ! D49   D(33,11,14,19)        146.4739         estimate D2E/DX2                !
 ! D50   D(34,11,14,18)       -148.2047         estimate D2E/DX2                !
 ! D51   D(34,11,14,19)         31.8            estimate D2E/DX2                !
 ! D52   D(10,12,15,23)        178.3592         estimate D2E/DX2                !
 ! D53   D(10,12,15,37)        -60.4318         estimate D2E/DX2                !
 ! D54   D(10,12,15,38)         57.3178         estimate D2E/DX2                !
 ! D55   D(35,12,15,23)        -59.9706         estimate D2E/DX2                !
 ! D56   D(35,12,15,37)         61.2384         estimate D2E/DX2                !
 ! D57   D(35,12,15,38)        178.988          estimate D2E/DX2                !
 ! D58   D(36,12,15,23)         56.7797         estimate D2E/DX2                !
 ! D59   D(36,12,15,37)        177.9888         estimate D2E/DX2                !
 ! D60   D(36,12,15,38)        -64.2617         estimate D2E/DX2                !
 ! D61   D(3,13,16,1)          179.9946         estimate D2E/DX2                !
 ! D62   D(3,13,16,4)            0.0114         estimate D2E/DX2                !
 ! D63   D(17,13,16,1)          -0.0252         estimate D2E/DX2                !
 ! D64   D(17,13,16,4)         179.9915         estimate D2E/DX2                !
 ! D65   D(3,13,17,2)          -90.0245         estimate D2E/DX2                !
 ! D66   D(3,13,17,39)         151.8288         estimate D2E/DX2                !
 ! D67   D(3,13,17,40)          31.2433         estimate D2E/DX2                !
 ! D68   D(16,13,17,2)          89.9984         estimate D2E/DX2                !
 ! D69   D(16,13,17,39)        -28.1483         estimate D2E/DX2                !
 ! D70   D(16,13,17,40)       -148.7338         estimate D2E/DX2                !
 ! D71   D(11,14,18,21)       -179.9898         estimate D2E/DX2                !
 ! D72   D(11,14,18,41)          1.2638         estimate D2E/DX2                !
 ! D73   D(19,14,18,21)          0.0054         estimate D2E/DX2                !
 ! D74   D(19,14,18,41)       -178.741          estimate D2E/DX2                !
 ! D75   D(11,14,19,22)        179.9923         estimate D2E/DX2                !
 ! D76   D(11,14,19,42)         -4.5482         estimate D2E/DX2                !
 ! D77   D(18,14,19,22)         -0.0029         estimate D2E/DX2                !
 ! D78   D(18,14,19,42)        175.4566         estimate D2E/DX2                !
 ! D79   D(12,15,23,45)         60.1424         estimate D2E/DX2                !
 ! D80   D(12,15,23,46)        -60.3743         estimate D2E/DX2                !
 ! D81   D(12,15,23,47)        179.8809         estimate D2E/DX2                !
 ! D82   D(37,15,23,45)        -61.471          estimate D2E/DX2                !
 ! D83   D(37,15,23,46)        178.0123         estimate D2E/DX2                !
 ! D84   D(37,15,23,47)         58.2675         estimate D2E/DX2                !
 ! D85   D(38,15,23,45)       -178.3416         estimate D2E/DX2                !
 ! D86   D(38,15,23,46)         61.1417         estimate D2E/DX2                !
 ! D87   D(38,15,23,47)        -58.6031         estimate D2E/DX2                !
 ! D88   D(14,18,21,20)         -0.0052         estimate D2E/DX2                !
 ! D89   D(14,18,21,43)       -179.7677         estimate D2E/DX2                !
 ! D90   D(41,18,21,20)        178.7818         estimate D2E/DX2                !
 ! D91   D(41,18,21,43)         -0.9807         estimate D2E/DX2                !
 ! D92   D(14,19,22,20)          0.0003         estimate D2E/DX2                !
 ! D93   D(14,19,22,44)        179.0591         estimate D2E/DX2                !
 ! D94   D(42,19,22,20)       -175.5959         estimate D2E/DX2                !
 ! D95   D(42,19,22,44)          3.4628         estimate D2E/DX2                !
 ! D96   D(22,20,21,18)          0.0027         estimate D2E/DX2                !
 ! D97   D(22,20,21,43)        179.7607         estimate D2E/DX2                !
 ! D98   D(24,20,21,18)       -179.9616         estimate D2E/DX2                !
 ! D99   D(24,20,21,43)         -0.2036         estimate D2E/DX2                !
 ! D100  D(21,20,22,19)         -0.0003         estimate D2E/DX2                !
 ! D101  D(21,20,22,44)       -179.0411         estimate D2E/DX2                !
 ! D102  D(24,20,22,19)        179.964          estimate D2E/DX2                !
 ! D103  D(24,20,22,44)          0.9232         estimate D2E/DX2                !
 ! D104  D(21,20,24,25)        -89.9832         estimate D2E/DX2                !
 ! D105  D(21,20,24,26)         89.9999         estimate D2E/DX2                !
 ! D106  D(22,20,24,25)         90.0525         estimate D2E/DX2                !
 ! D107  D(22,20,24,26)        -89.9644         estimate D2E/DX2                !
 ! D108  D(20,24,25,27)        179.9906         estimate D2E/DX2                !
 ! D109  D(20,24,25,29)         -0.0358         estimate D2E/DX2                !
 ! D110  D(26,24,25,27)          0.0076         estimate D2E/DX2                !
 ! D111  D(26,24,25,29)        179.9813         estimate D2E/DX2                !
 ! D112  D(20,24,26,28)       -179.9955         estimate D2E/DX2                !
 ! D113  D(20,24,26,48)          0.0152         estimate D2E/DX2                !
 ! D114  D(25,24,26,28)         -0.012          estimate D2E/DX2                !
 ! D115  D(25,24,26,48)        179.9987         estimate D2E/DX2                !
 ! D116  D(24,25,27,30)          0.004          estimate D2E/DX2                !
 ! D117  D(24,25,27,50)       -179.9782         estimate D2E/DX2                !
 ! D118  D(29,25,27,30)       -179.9705         estimate D2E/DX2                !
 ! D119  D(29,25,27,50)          0.0473         estimate D2E/DX2                !
 ! D120  D(24,25,29,5)         -90.0458         estimate D2E/DX2                !
 ! D121  D(24,25,29,6)          90.0284         estimate D2E/DX2                !
 ! D122  D(27,25,29,5)          89.9284         estimate D2E/DX2                !
 ! D123  D(27,25,29,6)         -89.9975         estimate D2E/DX2                !
 ! D124  D(24,26,28,30)          0.0047         estimate D2E/DX2                !
 ! D125  D(24,26,28,51)       -179.9914         estimate D2E/DX2                !
 ! D126  D(48,26,28,30)        179.9943         estimate D2E/DX2                !
 ! D127  D(48,26,28,51)         -0.0019         estimate D2E/DX2                !
 ! D128  D(25,27,30,28)         -0.0113         estimate D2E/DX2                !
 ! D129  D(25,27,30,52)       -179.9898         estimate D2E/DX2                !
 ! D130  D(50,27,30,28)        179.9713         estimate D2E/DX2                !
 ! D131  D(50,27,30,52)         -0.0073         estimate D2E/DX2                !
 ! D132  D(26,28,30,27)          0.0069         estimate D2E/DX2                !
 ! D133  D(26,28,30,52)        179.9855         estimate D2E/DX2                !
 ! D134  D(51,28,30,27)       -179.9969         estimate D2E/DX2                !
 ! D135  D(51,28,30,52)         -0.0183         estimate D2E/DX2                !
 --------------------------------------------------------------------------------
 Trust Radius=3.00D-01 FncErr=1.00D-07 GrdErr=1.00D-06 EigMax=2.50D+02 EigMin=1.00D-04
 Number of steps in this run=    296 maximum allowed number of steps=    318.
 GradGradGradGradGradGradGradGradGradGradGradGradGradGradGradGradGradGrad

 Stoichiometry    C22H23ClN6O
 Framework group  C1[X(C22H23ClN6O)]
 Deg. of freedom   153
 Full point group                 C1      NOp   1
 Largest Abelian subgroup         C1      NOp   1
 Largest concise Abelian subgroup C1      NOp   1
                         Standard orientation:                         
 ---------------------------------------------------------------------
 Center     Atomic      Atomic             Coordinates (Angstroms)
 Number     Number       Type             X           Y           Z
 ---------------------------------------------------------------------
      1         17           0        4.088478   -3.197139    0.959492
      2          8           0        0.909977   -3.129292   -1.329835
      3          7           0        2.452666   -0.344080   -1.022709
      4          7           0        3.696653   -0.532866    0.807181
      5          7           0       -3.203043   -1.682266    1.601430
      6          7           0       -2.824341    0.361685    2.499618
      7          7           0       -2.368082   -1.692547    2.650086
      8          7           0       -2.114631   -0.503420    3.213729
      9          6           0        3.073161    0.273767    0.005995
     10          6           0        3.015395    1.772183    0.164927
     11          6           0        1.680094    0.269369   -2.078913
     12          6           0        4.391309    2.355141    0.499217
     13          6           0        2.697942   -1.679915   -0.873229
     14          6           0        0.226310    0.376003   -1.705134
     15          6           0        4.319479    3.869524    0.694014
     16          6           0        3.467493   -1.771835    0.262534
     17          6           0        2.186538   -2.702520   -1.804952
     18          6           0       -0.230614    1.512877   -1.052343
     19          6           0       -0.638540   -0.663798   -2.017915
     20          6           0       -2.455719    0.572705   -1.015214
     21          6           0       -1.578108    1.611682   -0.705663
     22          6           0       -1.986034   -0.565088   -1.671340
     23          6           0        5.675266    4.448596    1.065614
     24          6           0       -3.853689    0.675656   -0.656284
     25          6           0       -4.333508    0.220552    0.574299
     26          6           0       -4.737075    1.248246   -1.574556
     27          6           0       -5.688432    0.337247    0.884484
     28          6           0       -6.091996    1.364841   -1.264376
     29          6           0       -3.458197   -0.376373    1.549920
     30          6           0       -6.567725    0.909293   -0.034908
     31          1           0        2.657729    2.288030   -0.726052
     32          1           0        2.312516    1.999379    0.975860
     33          1           0        2.101979    1.245057   -2.335622
     34          1           0        1.799537   -0.311416   -2.998987
     35          1           0        5.099991    2.118119   -0.304726
     36          1           0        4.782462    1.890534    1.413246
     37          1           0        3.963578    4.347330   -0.226150
     38          1           0        3.598818    4.109849    1.484268
     39          1           0        2.845267   -3.577089   -1.832990
     40          1           0        2.082928   -2.360419   -2.836088
     41          1           0        0.427565    2.341973   -0.818909
     42          1           0       -0.311021   -1.523086   -2.590126
     43          1           0       -1.928723    2.507118   -0.197927
     44          1           0       -2.659864   -1.377280   -1.933723
     45          1           0        6.413861    4.251648    0.281939
     46          1           0        6.043429    4.016570    2.001517
     47          1           0        5.601073    5.532597    1.197955
     48          1           0       -4.385917    1.609472   -2.538666
     49          1           0        1.044305   -3.565588   -0.470850
     50          1           0       -6.077135   -0.011965    1.838316
     51          1           0       -6.776752    1.810279   -1.980126
     52          1           0       -7.622772    1.000395    0.206514
     53          1           0       -1.951456   -2.550252    2.996246
 ---------------------------------------------------------------------
 Rotational constants (GHZ):           0.2031743           0.0805777           0.0724098
 Standard basis: 6-311++G(d,p) (5D, 7F)
 There are   859 symmetry adapted cartesian basis functions of A   symmetry.
 There are   829 symmetry adapted basis functions of A   symmetry.
   829 basis functions,  1304 primitive gaussians,   859 cartesian basis functions
   111 alpha electrons      111 beta electrons
       nuclear repulsion energy      2969.1553817908 Hartrees.
 NAtoms=   53 NActive=   53 NUniq=   53 SFac= 1.00D+00 NAtFMM=   60 NAOKFM=F Big=F
 Integral buffers will be    131072 words long.
 Raffenetti 2 integral format.
 Two-electron integral symmetry is turned on.
 ------------------------------------------------------------------------------
 Polarizable Continuum Model (PCM)
 =================================
 Model                : PCM.
 Atomic radii         : UFF (Universal Force Field).
 Polarization charges : Total charges.
 Charge compensation  : None.
 Solution method      : On-the-fly selection.
 Cavity type          : Scaled VdW (van der Waals Surface) (Alpha=1.100).
 Cavity algorithm     : GePol (No added spheres)
                        Default sphere list used, NSphG=   53.
                        Lebedev-Laikov grids with approx.  5.0 points / Ang**2.
                        Smoothing algorithm: York/Karplus (Gamma=1.0000).
                        Polarization charges: spherical gaussians, with
                                              point-specific exponents (IZeta= 3).
                        Self-potential: point-specific (ISelfS= 7).
                        Self-field    : sphere-specific E.n sum rule (ISelfD= 2).
 1st derivatives      : Analytical E(r).r(x)/FMM algorithm (CHGder, D1EAlg=3).
                        Cavity 1st derivative terms included.
 Solvent              : Water, Eps=  78.355300 Eps(inf)=   1.777849
 ------------------------------------------------------------------------------
 One-electron integrals computed using PRISM.
 NBasis=   829 RedAO= T EigKep=  1.08D-06  NBF=   829
 NBsUse=   822 1.00D-06 EigRej=  6.38D-07 NBFU=   822
 ExpMin= 3.60D-02 ExpMax= 1.06D+05 ExpMxC= 3.62D+03 IAcc=3 IRadAn=         5 AccDes= 0.00D+00
 Harris functional with IExCor=  402 and IRadAn=       5 diagonalized for initial guess.
 HarFok:  IExCor=  402 AccDes= 0.00D+00 IRadAn=         5 IDoV= 1 UseB2=F ITyADJ=14
 ICtDFT=  3500011 ScaDFX=  1.000000  1.000000  1.000000  1.000000
 FoFCou: FMM=F IPFlag=           0 FMFlag=      100000 FMFlg1=           0
         NFxFlg=           0 DoJE=T BraDBF=F KetDBF=T FulRan=T
         wScrn=  0.000000 ICntrl=       500 IOpCl=  0 I1Cent=   200000004 NGrid=           0
         NMat0=    1 NMatS0=      1 NMatT0=    0 NMatD0=    1 NMtDS0=    0 NMtDT0=    0
 Petite list used in FoFCou.
 Requested convergence on RMS density matrix=1.00D-08 within 128 cycles.
 Requested convergence on MAX density matrix=1.00D-06.
 Requested convergence on             energy=1.00D-06.
 No special actions if energy rises.
 Inv3:  Mode=1 IEnd=    44629347.
 Iteration    1 A*A^-1 deviation from unit magnitude is 9.21D-15 for   3852.
 Iteration    1 A*A^-1 deviation from orthogonality  is 3.05D-15 for   3851   3741.
 Iteration    1 A^-1*A deviation from unit magnitude is 9.10D-15 for   3852.
 Iteration    1 A^-1*A deviation from orthogonality  is 7.45D-14 for   3443   3427.
 Error on total polarization charges =  0.02416
 SCF Done:  E(RB3LYP) =  -1716.43917462     A.U. after   15 cycles
            NFock= 15  Conv=0.67D-08     -V/T= 2.0034

 **********************************************************************

            Population analysis using the SCF Density.

 **********************************************************************

 Orbital symmetries:
       Occupied  (A) (A) (A) (A) (A) (A) (A) (A) (A) (A) (A) (A)
                 (A) (A) (A) (A) (A) (A) (A) (A) (A) (A) (A) (A)
                 (A) (A) (A) (A) (A) (A) (A) (A) (A) (A) (A) (A)
                 (A) (A) (A) (A) (A) (A) (A) (A) (A) (A) (A) (A)
                 (A) (A) (A) (A) (A) (A) (A) (A) (A) (A) (A) (A)
                 (A) (A) (A) (A) (A) (A) (A) (A) (A) (A) (A) (A)
                 (A) (A) (A) (A) (A) (A) (A) (A) (A) (A) (A) (A)
                 (A) (A) (A) (A) (A) (A) (A) (A) (A) (A) (A) (A)
                 (A) (A) (A) (A) (A) (A) (A) (A) (A) (A) (A) (A)
                 (A) (A) (A)
       Virtual   (A) (A) (A) (A) (A) (A) (A) (A) (A) (A) (A) (A)
                 (A) (A) (A) (A) (A) (A) (A) (A) (A) (A) (A) (A)
                 (A) (A) (A) (A) (A) (A) (A) (A) (A) (A) (A) (A)
                 (A) (A) (A) (A) (A) (A) (A) (A) (A) (A) (A) (A)
                 (A) (A) (A) (A) (A) (A) (A) (A) (A) (A) (A) (A)
                 (A) (A) (A) (A) (A) (A) (A) (A) (A) (A) (A) (A)
                 (A) (A) (A) (A) (A) (A) (A) (A) (A) (A) (A) (A)
                 (A) (A) (A) (A) (A) (A) (A) (A) (A) (A) (A) (A)
                 (A) (A) (A) (A) (A) (A) (A) (A) (A) (A) (A) (A)
                 (A) (A) (A) (A) (A) (A) (A) (A) (A) (A) (A) (A)
                 (A) (A) (A) (A) (A) (A) (A) (A) (A) (A) (A) (A)
                 (A) (A) (A) (A) (A) (A) (A) (A) (A) (A) (A) (A)
                 (A) (A) (A) (A) (A) (A) (A) (A) (A) (A) (A) (A)
                 (A) (A) (A) (A) (A) (A) (A) (A) (A) (A) (A) (A)
                 (A) (A) (A) (A) (A) (A) (A) (A) (A) (A) (A) (A)
                 (A) (A) (A) (A) (A) (A) (A) (A) (A) (A) (A) (A)
                 (A) (A) (A) (A) (A) (A) (A) (A) (A) (A) (A) (A)
                 (A) (A) (A) (A) (A) (A) (A) (A) (A) (A) (A) (A)
                 (A) (A) (A) (A) (A) (A) (A) (A) (A) (A) (A) (A)
                 (A) (A) (A) (A) (A) (A) (A) (A) (A) (A) (A) (A)
                 (A) (A) (A) (A) (A) (A) (A) (A) (A) (A) (A) (A)
                 (A) (A) (A) (A) (A) (A) (A) (A) (A) (A) (A) (A)
                 (A) (A) (A) (A) (A) (A) (A) (A) (A) (A) (A) (A)
                 (A) (A) (A) (A) (A) (A) (A) (A) (A) (A) (A) (A)
                 (A) (A) (A) (A) (A) (A) (A) (A) (A) (A) (A) (A)
                 (A) (A) (A) (A) (A) (A) (A) (A) (A) (A) (A) (A)
                 (A) (A) (A) (A) (A) (A) (A) (A) (A) (A) (A) (A)
                 (A) (A) (A) (A) (A) (A) (A) (A) (A) (A) (A) (A)
                 (A) (A) (A) (A) (A) (A) (A) (A) (A) (A) (A) (A)
                 (A) (A) (A) (A) (A) (A) (A) (A) (A) (A) (A) (A)
                 (A) (A) (A) (A) (A) (A) (A) (A) (A) (A) (A) (A)
                 (A) (A) (A) (A) (A) (A) (A) (A) (A) (A) (A) (A)
                 (A) (A) (A) (A) (A) (A) (A) (A) (A) (A) (A) (A)
                 (A) (A) (A) (A) (A) (A) (A) (A) (A) (A) (A) (A)
                 (A) (A) (A) (A) (A) (A) (A) (A) (A) (A) (A) (A)
                 (A) (A) (A) (A) (A) (A) (A) (A) (A) (A) (A) (A)
                 (A) (A) (A) (A) (A) (A) (A) (A) (A) (A) (A) (A)
                 (A) (A) (A) (A) (A) (A) (A) (A) (A) (A) (A) (A)
                 (A) (A) (A) (A) (A) (A) (A) (A) (A) (A) (A) (A)
                 (A) (A) (A) (A) (A) (A) (A) (A) (A) (A) (A) (A)
                 (A) (A) (A) (A) (A) (A) (A) (A) (A) (A) (A) (A)
                 (A) (A) (A) (A) (A) (A) (A) (A) (A) (A) (A) (A)
                 (A) (A) (A) (A) (A) (A) (A) (A) (A) (A) (A) (A)
                 (A) (A) (A) (A) (A) (A) (A) (A) (A) (A) (A) (A)
                 (A) (A) (A) (A) (A) (A) (A) (A) (A) (A) (A) (A)
                 (A) (A) (A) (A) (A) (A) (A) (A) (A) (A) (A) (A)
                 (A) (A) (A) (A) (A) (A) (A) (A) (A) (A) (A) (A)
                 (A) (A) (A) (A) (A) (A) (A) (A) (A) (A) (A) (A)
                 (A) (A) (A) (A) (A) (A) (A) (A) (A) (A) (A) (A)
                 (A) (A) (A) (A) (A) (A) (A) (A) (A) (A) (A) (A)
                 (A) (A) (A) (A) (A) (A) (A) (A) (A) (A) (A) (A)
                 (A) (A) (A) (A) (A) (A) (A) (A) (A) (A) (A) (A)
                 (A) (A) (A) (A) (A) (A) (A) (A) (A) (A) (A) (A)
                 (A) (A) (A) (A) (A) (A) (A) (A) (A) (A) (A) (A)
                 (A) (A) (A) (A) (A) (A) (A) (A) (A) (A) (A) (A)
                 (A) (A) (A) (A) (A) (A) (A) (A) (A) (A) (A) (A)
                 (A) (A) (A) (A) (A) (A) (A) (A) (A) (A) (A) (A)
                 (A) (A) (A) (A) (A) (A) (A) (A) (A) (A) (A) (A)
                 (A) (A) (A) (A) (A) (A) (A) (A) (A) (A) (A) (A)
                 (A) (A) (A)
 The electronic state is 1-A.
 Alpha  occ. eigenvalues -- -101.56609 -19.13378 -14.45326 -14.41568 -14.38522
 Alpha  occ. eigenvalues --  -14.38143 -14.36807 -14.31047 -10.25463 -10.24709
 Alpha  occ. eigenvalues --  -10.23918 -10.23663 -10.22758 -10.21268 -10.20156
 Alpha  occ. eigenvalues --  -10.19860 -10.19156 -10.19148 -10.19118 -10.18783
 Alpha  occ. eigenvalues --  -10.18708 -10.18616 -10.18419 -10.18363 -10.18330
 Alpha  occ. eigenvalues --  -10.18143 -10.18131 -10.16634 -10.16323 -10.15533
 Alpha  occ. eigenvalues --   -9.48137  -7.24578  -7.23608  -7.23601  -1.16226
 Alpha  occ. eigenvalues --   -1.05412  -1.03490  -0.96891  -0.92810  -0.91714
 Alpha  occ. eigenvalues --   -0.88547  -0.87452  -0.86449  -0.81669  -0.80637
 Alpha  occ. eigenvalues --   -0.78187  -0.77741  -0.76078  -0.75740  -0.73927
 Alpha  occ. eigenvalues --   -0.71316  -0.70245  -0.68377  -0.67491  -0.64437
 Alpha  occ. eigenvalues --   -0.63228  -0.62456  -0.61609  -0.60213  -0.59698
 Alpha  occ. eigenvalues --   -0.58007  -0.57935  -0.57350  -0.54677  -0.53498
 Alpha  occ. eigenvalues --   -0.51768  -0.51662  -0.50726  -0.49211  -0.48896
 Alpha  occ. eigenvalues --   -0.47979  -0.47839  -0.47172  -0.46967  -0.46122
 Alpha  occ. eigenvalues --   -0.45552  -0.44469  -0.44176  -0.43365  -0.43159
 Alpha  occ. eigenvalues --   -0.42815  -0.42219  -0.41664  -0.41391  -0.40597
 Alpha  occ. eigenvalues --   -0.38873  -0.38351  -0.38091  -0.37951  -0.36642
 Alpha  occ. eigenvalues --   -0.36457  -0.36026  -0.35809  -0.35469  -0.34892
 Alpha  occ. eigenvalues --   -0.34777  -0.34648  -0.33938  -0.33441  -0.33111
 Alpha  occ. eigenvalues --   -0.32953  -0.32658  -0.31280  -0.30444  -0.29912
 Alpha  occ. eigenvalues --   -0.28633  -0.27399  -0.26690  -0.26512  -0.26066
 Alpha  occ. eigenvalues --   -0.22826
 Alpha virt. eigenvalues --   -0.05982  -0.03762  -0.02927  -0.02662  -0.01781
 Alpha virt. eigenvalues --   -0.01281  -0.00672  -0.00253   0.00256   0.00454
 Alpha virt. eigenvalues --    0.00543   0.00850   0.01299   0.01676   0.01712
 Alpha virt. eigenvalues --    0.02053   0.02408   0.02512   0.02794   0.03252
 Alpha virt. eigenvalues --    0.03515   0.03575   0.03922   0.04489   0.04576
 Alpha virt. eigenvalues --    0.04807   0.04975   0.05272   0.05909   0.06159
 Alpha virt. eigenvalues --    0.06571   0.06853   0.07080   0.07451   0.07704
 Alpha virt. eigenvalues --    0.07862   0.08155   0.08353   0.08690   0.09071
 Alpha virt. eigenvalues --    0.09201   0.09499   0.09782   0.10311   0.10376
 Alpha virt. eigenvalues --    0.10455   0.10715   0.10892   0.11012   0.11148
 Alpha virt. eigenvalues --    0.11587   0.11617   0.11796   0.11928   0.11980
 Alpha virt. eigenvalues --    0.12170   0.12372   0.12647   0.12716   0.12930
 Alpha virt. eigenvalues --    0.12980   0.13110   0.13133   0.13508   0.13658
 Alpha virt. eigenvalues --    0.13908   0.13978   0.14271   0.14338   0.14573
 Alpha virt. eigenvalues --    0.14740   0.14974   0.15079   0.15458   0.15748
 Alpha virt. eigenvalues --    0.15786   0.15966   0.16203   0.16430   0.16535
 Alpha virt. eigenvalues --    0.16691   0.16910   0.17315   0.17460   0.17654
 Alpha virt. eigenvalues --    0.17785   0.18145   0.18216   0.18342   0.18424
 Alpha virt. eigenvalues --    0.18720   0.19055   0.19218   0.19550   0.19749
 Alpha virt. eigenvalues --    0.19925   0.20290   0.20336   0.20352   0.20677
 Alpha virt. eigenvalues --    0.20839   0.21266   0.21593   0.21825   0.22008
 Alpha virt. eigenvalues --    0.22159   0.22404   0.22581   0.22980   0.23157
 Alpha virt. eigenvalues --    0.23513   0.23663   0.23934   0.24013   0.24348
 Alpha virt. eigenvalues --    0.24651   0.24698   0.24981   0.25326   0.25419
 Alpha virt. eigenvalues --    0.25571   0.25810   0.25952   0.25994   0.26506
 Alpha virt. eigenvalues --    0.26659   0.26889   0.26989   0.27369   0.27507
 Alpha virt. eigenvalues --    0.27770   0.28143   0.28197   0.28292   0.28585
 Alpha virt. eigenvalues --    0.28901   0.28992   0.29230   0.29500   0.29541
 Alpha virt. eigenvalues --    0.29853   0.29887   0.30331   0.30544   0.30722
 Alpha virt. eigenvalues --    0.30775   0.31154   0.31222   0.31451   0.31607
 Alpha virt. eigenvalues --    0.31990   0.32353   0.32425   0.32579   0.32869
 Alpha virt. eigenvalues --    0.32981   0.33253   0.33474   0.33707   0.34021
 Alpha virt. eigenvalues --    0.34412   0.34617   0.34787   0.35253   0.35439
 Alpha virt. eigenvalues --    0.35621   0.35860   0.35969   0.36648   0.36840
 Alpha virt. eigenvalues --    0.36879   0.37167   0.37382   0.38094   0.38163
 Alpha virt. eigenvalues --    0.38640   0.38861   0.39046   0.39335   0.39426
 Alpha virt. eigenvalues --    0.39700   0.40442   0.40956   0.41150   0.41451
 Alpha virt. eigenvalues --    0.41817   0.42033   0.42464   0.42968   0.43487
 Alpha virt. eigenvalues --    0.43753   0.45514   0.45575   0.46036   0.46112
 Alpha virt. eigenvalues --    0.46682   0.47362   0.47900   0.48432   0.49142
 Alpha virt. eigenvalues --    0.49576   0.49847   0.51234   0.52648   0.52699
 Alpha virt. eigenvalues --    0.53456   0.53745   0.54252   0.54508   0.54900
 Alpha virt. eigenvalues --    0.56149   0.56324   0.57098   0.57418   0.57663
 Alpha virt. eigenvalues --    0.58464   0.58795   0.58984   0.59388   0.59781
 Alpha virt. eigenvalues --    0.60758   0.60992   0.61823   0.61863   0.62216
 Alpha virt. eigenvalues --    0.62736   0.63259   0.63738   0.63834   0.64407
 Alpha virt. eigenvalues --    0.65341   0.65885   0.66339   0.66519   0.66860
 Alpha virt. eigenvalues --    0.67670   0.67928   0.68061   0.68387   0.68493
 Alpha virt. eigenvalues --    0.69057   0.69583   0.69624   0.70220   0.70844
 Alpha virt. eigenvalues --    0.70957   0.71122   0.71584   0.71770   0.72229
 Alpha virt. eigenvalues --    0.72474   0.73016   0.73435   0.73462   0.73976
 Alpha virt. eigenvalues --    0.74075   0.74712   0.74833   0.75300   0.75647
 Alpha virt. eigenvalues --    0.75932   0.76446   0.76860   0.76997   0.77176
 Alpha virt. eigenvalues --    0.77728   0.77896   0.78503   0.79200   0.79463
 Alpha virt. eigenvalues --    0.79741   0.79832   0.80256   0.80652   0.81197
 Alpha virt. eigenvalues --    0.81505   0.81885   0.82437   0.82964   0.83312
 Alpha virt. eigenvalues --    0.84026   0.84502   0.85016   0.85620   0.85721
 Alpha virt. eigenvalues --    0.86363   0.86878   0.87011   0.87445   0.87786
 Alpha virt. eigenvalues --    0.87887   0.88253   0.88889   0.89217   0.90069
 Alpha virt. eigenvalues --    0.90291   0.90463   0.91142   0.91397   0.92000
 Alpha virt. eigenvalues --    0.92653   0.92839   0.93945   0.94181   0.94786
 Alpha virt. eigenvalues --    0.95346   0.95462   0.95954   0.96380   0.97064
 Alpha virt. eigenvalues --    0.97298   0.97877   0.99271   0.99448   0.99778
 Alpha virt. eigenvalues --    1.00287   1.01309   1.01430   1.01691   1.02205
 Alpha virt. eigenvalues --    1.02395   1.03155   1.03510   1.04001   1.04694
 Alpha virt. eigenvalues --    1.05478   1.06096   1.06629   1.07318   1.08182
 Alpha virt. eigenvalues --    1.08416   1.09103   1.10201   1.10489   1.11195
 Alpha virt. eigenvalues --    1.12075   1.13550   1.14770   1.15371   1.15547
 Alpha virt. eigenvalues --    1.16321   1.17070   1.18177   1.18766   1.20003
 Alpha virt. eigenvalues --    1.20566   1.20774   1.22662   1.24737   1.25009
 Alpha virt. eigenvalues --    1.25231   1.26472   1.27160   1.27599   1.28081
 Alpha virt. eigenvalues --    1.29434   1.29750   1.31150   1.31951   1.32543
 Alpha virt. eigenvalues --    1.33185   1.33702   1.33984   1.35256   1.35546
 Alpha virt. eigenvalues --    1.36471   1.39106   1.39345   1.40071   1.41069
 Alpha virt. eigenvalues --    1.41819   1.43505   1.44123   1.44949   1.46448
 Alpha virt. eigenvalues --    1.47455   1.47993   1.49769   1.50560   1.50722
 Alpha virt. eigenvalues --    1.52079   1.52603   1.52857   1.53481   1.53906
 Alpha virt. eigenvalues --    1.54711   1.55249   1.55659   1.56722   1.56965
 Alpha virt. eigenvalues --    1.57192   1.57546   1.58345   1.58567   1.58844
 Alpha virt. eigenvalues --    1.59766   1.59822   1.60177   1.60893   1.61499
 Alpha virt. eigenvalues --    1.62236   1.62389   1.62891   1.63831   1.64332
 Alpha virt. eigenvalues --    1.65125   1.65635   1.66154   1.67194   1.67515
 Alpha virt. eigenvalues --    1.67807   1.68260   1.68702   1.69386   1.69693
 Alpha virt. eigenvalues --    1.70762   1.71037   1.72252   1.72902   1.73499
 Alpha virt. eigenvalues --    1.73639   1.74276   1.74697   1.75003   1.75439
 Alpha virt. eigenvalues --    1.76007   1.77188   1.77345   1.78094   1.78992
 Alpha virt. eigenvalues --    1.79672   1.80301   1.80942   1.81524   1.82261
 Alpha virt. eigenvalues --    1.83179   1.83917   1.84720   1.85539   1.86274
 Alpha virt. eigenvalues --    1.87109   1.87256   1.88269   1.89106   1.89395
 Alpha virt. eigenvalues --    1.90054   1.90997   1.91467   1.92062   1.93376
 Alpha virt. eigenvalues --    1.94857   1.95876   1.95926   1.96684   1.96926
 Alpha virt. eigenvalues --    1.97969   1.98236   1.98495   1.99404   1.99742
 Alpha virt. eigenvalues --    1.99994   2.00323   2.01837   2.02057   2.03816
 Alpha virt. eigenvalues --    2.04792   2.05522   2.07490   2.07579   2.08266
 Alpha virt. eigenvalues --    2.09324   2.09805   2.10311   2.10901   2.11296
 Alpha virt. eigenvalues --    2.12280   2.13883   2.14932   2.16009   2.16493
 Alpha virt. eigenvalues --    2.17588   2.18350   2.20167   2.20508   2.20720
 Alpha virt. eigenvalues --    2.21685   2.23094   2.23598   2.24543   2.25920
 Alpha virt. eigenvalues --    2.26293   2.27081   2.27391   2.28744   2.29497
 Alpha virt. eigenvalues --    2.30282   2.30941   2.31240   2.33385   2.34359
 Alpha virt. eigenvalues --    2.35230   2.36441   2.38068   2.39746   2.40909
 Alpha virt. eigenvalues --    2.41822   2.42857   2.43331   2.44003   2.45078
 Alpha virt. eigenvalues --    2.46109   2.46593   2.47275   2.47806   2.48393
 Alpha virt. eigenvalues --    2.48909   2.50428   2.51426   2.52920   2.53923
 Alpha virt. eigenvalues --    2.54237   2.54658   2.55892   2.57014   2.57337
 Alpha virt. eigenvalues --    2.59512   2.60444   2.60799   2.61431   2.61633
 Alpha virt. eigenvalues --    2.62075   2.63048   2.63853   2.64392   2.66392
 Alpha virt. eigenvalues --    2.67085   2.67923   2.68439   2.68595   2.69096
 Alpha virt. eigenvalues --    2.69915   2.70146   2.70958   2.71616   2.71838
 Alpha virt. eigenvalues --    2.72255   2.73318   2.73609   2.73858   2.74767
 Alpha virt. eigenvalues --    2.75229   2.75720   2.76643   2.77252   2.78035
 Alpha virt. eigenvalues --    2.79247   2.79919   2.80035   2.80653   2.81773
 Alpha virt. eigenvalues --    2.81982   2.83271   2.83909   2.84066   2.85134
 Alpha virt. eigenvalues --    2.85566   2.85930   2.87300   2.87781   2.88508
 Alpha virt. eigenvalues --    2.88765   2.89614   2.90722   2.91105   2.93052
 Alpha virt. eigenvalues --    2.93919   2.94314   2.94736   2.96165   2.96634
 Alpha virt. eigenvalues --    2.97287   2.98070   2.98315   2.99505   3.00891
 Alpha virt. eigenvalues --    3.01822   3.01986   3.03357   3.05044   3.05453
 Alpha virt. eigenvalues --    3.05891   3.05951   3.07198   3.07721   3.09529
 Alpha virt. eigenvalues --    3.12620   3.13652   3.13768   3.15262   3.15830
 Alpha virt. eigenvalues --    3.17888   3.19537   3.21012   3.23265   3.23960
 Alpha virt. eigenvalues --    3.26486   3.28703   3.29240   3.32419   3.32730
 Alpha virt. eigenvalues --    3.35568   3.36638   3.37401   3.40520   3.43675
 Alpha virt. eigenvalues --    3.45215   3.47122   3.51043   3.51503   3.53006
 Alpha virt. eigenvalues --    3.54191   3.55179   3.59297   3.61681   3.64007
 Alpha virt. eigenvalues --    3.70861   3.74236   3.74948   3.77314   3.78018
 Alpha virt. eigenvalues --    3.78791   3.80231   3.81911   3.83022   3.83330
 Alpha virt. eigenvalues --    3.84308   3.84838   3.86572   3.87167   3.89177
 Alpha virt. eigenvalues --    3.90157   3.91547   3.95562   3.96776   3.98699
 Alpha virt. eigenvalues --    4.00536   4.01501   4.02402   4.03349   4.05580
 Alpha virt. eigenvalues --    4.05779   4.08603   4.14058   4.16779   4.17675
 Alpha virt. eigenvalues --    4.18392   4.21254   4.23776   4.24740   4.29154
 Alpha virt. eigenvalues --    4.32363   4.34514   4.46626   4.58191   4.59565
 Alpha virt. eigenvalues --    4.70639   4.82434   4.84755   4.86793   4.87764
 Alpha virt. eigenvalues --    5.03594   5.09965   5.15492   5.29291   5.42376
 Alpha virt. eigenvalues --    5.61382   5.63410   9.81787  23.61901  23.70959
 Alpha virt. eigenvalues --   23.77035  23.87644  23.88686  23.90581  23.92086
 Alpha virt. eigenvalues --   23.93226  23.93813  23.97352  23.97629  23.97919
 Alpha virt. eigenvalues --   23.98902  24.00320  24.01565  24.07283  24.08572
 Alpha virt. eigenvalues --   24.08813  24.10362  24.13697  24.18115  24.22013
 Alpha virt. eigenvalues --   25.87751  26.13811  26.78942  35.40743  35.48188
 Alpha virt. eigenvalues --   35.52035  35.55203  35.59472  35.74939  49.94146
 Alpha virt. eigenvalues --  215.81603
          Condensed to atoms (all electrons):
 Mulliken charges:
               1
     1  Cl   0.532515
     2  O   -0.191740
     3  N    0.428890
     4  N    0.035261
     5  N    0.004163
     6  N   -0.102480
     7  N    0.024528
     8  N    0.054617
     9  C   -0.435153
    10  C    0.038577
    11  C   -0.773376
    12  C   -0.808275
    13  C    0.668991
    14  C    0.813916
    15  C   -0.028659
    16  C   -0.476584
    17  C   -1.053892
    18  C   -0.403906
    19  C   -0.418956
    20  C    1.189315
    21  C   -0.864936
    22  C   -0.964939
    23  C   -0.734076
    24  C    0.448346
    25  C    0.454273
    26  C   -0.209441
    27  C   -0.145955
    28  C   -0.480100
    29  C   -0.611647
    30  C   -0.373212
    31  H    0.062660
    32  H    0.214172
    33  H    0.250782
    34  H    0.166223
    35  H    0.165579
    36  H    0.155961
    37  H    0.144332
    38  H    0.138046
    39  H    0.169336
    40  H    0.209136
    41  H    0.160540
    42  H    0.184894
    43  H    0.230079
    44  H    0.220121
    45  H    0.139371
    46  H    0.140657
    47  H    0.145403
    48  H    0.203837
    49  H    0.278452
    50  H    0.218941
    51  H    0.202114
    52  H    0.196888
    53  H    0.386413
 Sum of Mulliken charges =  -0.00000
 Mulliken charges with hydrogens summed into heavy atoms:
               1
     1  Cl   0.532515
     2  O    0.086712
     3  N    0.428890
     4  N    0.035261
     5  N    0.004163
     6  N   -0.102480
     7  N    0.410941
     8  N    0.054617
     9  C   -0.435153
    10  C    0.315409
    11  C   -0.356372
    12  C   -0.486734
    13  C    0.668991
    14  C    0.813916
    15  C    0.253719
    16  C   -0.476584
    17  C   -0.675420
    18  C   -0.243367
    19  C   -0.234062
    20  C    1.189315
    21  C   -0.634857
    22  C   -0.744818
    23  C   -0.308645
    24  C    0.448346
    25  C    0.454273
    26  C   -0.005605
    27  C    0.072986
    28  C   -0.277986
    29  C   -0.611647
    30  C   -0.176324
 Electronic spatial extent (au):  <R**2>=          15553.4540
 Charge=             -0.0000 electrons
 Dipole moment (field-independent basis, Debye):
    X=             -2.1651    Y=              0.1745    Z=             -5.2634  Tot=              5.6940
 Quadrupole moment (field-independent basis, Debye-Ang):
   XX=           -185.9753   YY=           -173.1437   ZZ=           -179.6823
   XY=              7.1933   XZ=            -12.9692   YZ=            -12.0751
 Traceless Quadrupole moment (field-independent basis, Debye-Ang):
   XX=             -6.3749   YY=              6.4567   ZZ=             -0.0818
   XY=              7.1933   XZ=            -12.9692   YZ=            -12.0751
 Octapole moment (field-independent basis, Debye-Ang**2):
  XXX=           -213.1700  YYY=            -53.3806  ZZZ=            -35.0084  XYY=             25.0964
  XXY=             44.8141  XXZ=            -65.1560  XZZ=              9.4091  YZZ=            -48.7801
  YYZ=             22.4470  XYZ=             47.6016
 Hexadecapole moment (field-independent basis, Debye-Ang**3):
 XXXX=         -13948.8653 YYYY=          -4328.9286 ZZZZ=          -2540.6842 XXXY=           -203.2439
 XXXZ=           -198.9886 YYYX=            -43.8438 YYYZ=           -128.6840 ZZZX=            -54.2889
 ZZZY=           -108.6556 XXYY=          -3236.3516 XXZZ=          -2766.6143 YYZZ=          -1070.3564
 XXYZ=           -102.6255 YYXZ=            -57.2240 ZZXY=             37.9485
 N-N= 2.969155381791D+03 E-N=-9.955228007095D+03  KE= 1.710577983764D+03
 D1PCM: PCM CHGder 1st derivatives, ID1Alg=3 FixD1E=F DoIter=F DoCFld=F I1PDM=0.
 Calling FoFJK, ICntrl=      2127 FMM=F ISym2X=0 I1Cent= 0 IOpClX= 0 NMat=1 NMatS=1 NMatT=0.
 ***** Axes restored to original set *****
 -------------------------------------------------------------------
 Center     Atomic                   Forces (Hartrees/Bohr)
 Number     Number              X              Y              Z
 -------------------------------------------------------------------
      1       17           0.006631720    0.014271255   -0.008664949
      2        8          -0.014534152    0.013448056   -0.001362139
      3        7           0.008903767   -0.000212091   -0.001213862
      4        7           0.006305293    0.026225157   -0.010207434
      5        7           0.015624707   -0.016557743   -0.023231248
      6        7           0.007903511    0.018294920   -0.008482972
      7        7           0.005640504    0.000037531   -0.007138309
      8        7          -0.014766951    0.012189074    0.020334728
      9        6          -0.010998189   -0.051098984    0.013574988
     10        6           0.008976635    0.004398670   -0.009306144
     11        6          -0.001769703   -0.004644496    0.017737218
     12        6          -0.001668734   -0.003115368   -0.004491461
     13        6           0.015240977    0.014353202    0.005817139
     14        6           0.010574574   -0.001132129    0.006216902
     15        6           0.002898349    0.001653451   -0.000134819
     16        6          -0.005614452   -0.014519474    0.008227924
     17        6           0.004051574    0.015282726   -0.011044869
     18        6          -0.011893429   -0.004333862   -0.003030904
     19        6          -0.013977207   -0.002307115    0.005758824
     20        6           0.018555796    0.003874741   -0.000333907
     21        6           0.007570118   -0.002833605    0.000069876
     22        6           0.006826079    0.003484054    0.003290126
     23        6           0.002360930   -0.005984309   -0.000668032
     24        6          -0.020310943   -0.006030313    0.004337798
     25        6          -0.019504114   -0.006631907    0.010854885
     26        6          -0.010474006   -0.002328599    0.000361464
     27        6          -0.009796848   -0.003376810    0.003249715
     28        6          -0.000876588   -0.000174233    0.000004918
     29        6           0.005304904   -0.001590365   -0.002062315
     30        6          -0.001721308   -0.000379666   -0.000228958
     31        1          -0.002463420    0.004963908    0.000255394
     32        1           0.000285187   -0.001973548    0.000920801
     33        1          -0.000728062    0.001755828   -0.005339976
     34        1          -0.000581287    0.001533665   -0.004630953
     35        1          -0.001076185   -0.000032907   -0.000493453
     36        1          -0.000743122   -0.000108214    0.002102444
     37        1          -0.001591883    0.000302037   -0.000214743
     38        1          -0.001351073    0.000708759    0.000975564
     39        1           0.004404280   -0.003383137    0.000494134
     40        1          -0.002994384   -0.002023216   -0.003038342
     41        1           0.000681975    0.002149928    0.001084767
     42        1           0.001830804   -0.001442455   -0.003540882
     43        1          -0.001602410    0.002833987    0.001127845
     44        1          -0.000399959   -0.003051611   -0.001418603
     45        1           0.000634703   -0.000336912   -0.000805448
     46        1           0.000799263   -0.000330039    0.000363181
     47        1           0.002441050    0.000142766   -0.000525281
     48        1           0.001962756    0.001722218   -0.003387291
     49        1          -0.001146166   -0.003615688    0.008133058
     50        1           0.003331183    0.000157068    0.001429263
     51        1           0.000900691    0.000497968   -0.000795044
     52        1           0.001536098    0.000374118   -0.000089968
     53        1           0.000407148   -0.001106291   -0.000840652
 -------------------------------------------------------------------
 Cartesian Forces:  Max     0.051098984 RMS     0.008454214

 GradGradGradGradGradGradGradGradGradGradGradGradGradGradGradGradGradGrad
 Berny optimization.
 FormGI is forming the generalized inverse of G from B-inverse, IUseBI=4.
 Internal  Forces:  Max     0.036435271 RMS     0.006866372
 Search for a local minimum.
 Step number   1 out of a maximum of  296
 All quantities printed in internal units (Hartrees-Bohrs-Radians)
 Mixed Optimization -- RFO/linear search
 Second derivative matrix not updated -- first step.
 ITU=  0
     Eigenvalues ---    0.00353   0.00388   0.00496   0.00661   0.00702
     Eigenvalues ---    0.01093   0.01098   0.01329   0.01467   0.01556
     Eigenvalues ---    0.01577   0.01632   0.01694   0.01743   0.01924
     Eigenvalues ---    0.01949   0.01964   0.01967   0.02084   0.02132
     Eigenvalues ---    0.02142   0.02150   0.02156   0.02157   0.02157
     Eigenvalues ---    0.02157   0.02157   0.02157   0.02157   0.02157
     Eigenvalues ---    0.02175   0.02202   0.02215   0.02234   0.02246
     Eigenvalues ---    0.02309   0.02367   0.02568   0.03665   0.03720
     Eigenvalues ---    0.04226   0.04870   0.04928   0.05035   0.05532
     Eigenvalues ---    0.05608   0.05702   0.06512   0.06560   0.07303
     Eigenvalues ---    0.08111   0.08169   0.09101   0.10042   0.11545
     Eigenvalues ---    0.12036   0.12069   0.12703   0.13300   0.13876
     Eigenvalues ---    0.15952   0.15996   0.15998   0.16000   0.16000
     Eigenvalues ---    0.16000   0.16000   0.16000   0.16000   0.16000
     Eigenvalues ---    0.16000   0.16000   0.16000   0.21825   0.21882
     Eigenvalues ---    0.21906   0.21927   0.21927   0.22000   0.22002
     Eigenvalues ---    0.22493   0.22990   0.23446   0.24001   0.24486
     Eigenvalues ---    0.25000   0.25000   0.25000   0.25000   0.25000
     Eigenvalues ---    0.25000   0.25000   0.25000   0.25000   0.25000
     Eigenvalues ---    0.25000   0.25000   0.29308   0.29558   0.30330
     Eigenvalues ---    0.31560   0.31874   0.33949   0.33970   0.34023
     Eigenvalues ---    0.34105   0.34108   0.34212   0.34270   0.34288
     Eigenvalues ---    0.34289   0.34290   0.34405   0.34659   0.34825
     Eigenvalues ---    0.35068   0.35094   0.35109   0.35110   0.35159
     Eigenvalues ---    0.35262   0.35268   0.35439   0.35513   0.35624
     Eigenvalues ---    0.38643   0.38874   0.39551   0.41365   0.42150
     Eigenvalues ---    0.42280   0.42298   0.42881   0.44951   0.45239
     Eigenvalues ---    0.46188   0.46312   0.46482   0.46483   0.46486
     Eigenvalues ---    0.46487   0.47083   0.47118   0.47434   0.47470
     Eigenvalues ---    0.50984   0.52818   0.53319   0.53365   0.55095
     Eigenvalues ---    0.57896   0.59475   0.65126
 RFO step:  Lambda=-3.87827495D-02 EMin= 3.52556341D-03
 Linear search not attempted -- first point.
 Maximum step size (   0.300) exceeded in Quadratic search.
    -- Step size scaled by   0.891
 Iteration  1 RMS(Cart)=  0.14252462 RMS(Int)=  0.00292800
 Iteration  2 RMS(Cart)=  0.00874629 RMS(Int)=  0.00021669
 Iteration  3 RMS(Cart)=  0.00004956 RMS(Int)=  0.00021583
 Iteration  4 RMS(Cart)=  0.00000001 RMS(Int)=  0.00021583
 Variable       Old X    -DE/DX   Delta X   Delta X   Delta X     New X
                                 (Linear)    (Quad)   (Total)
    R1        3.21968   0.01794   0.00000   0.04064   0.04064   3.26032
    R2        2.69740   0.01458   0.00000   0.02871   0.02871   2.72611
    R3        1.83824  -0.00897   0.00000  -0.01409  -0.01409   1.82415
    R4        2.55287   0.02388   0.00000   0.04049   0.04065   2.59352
    R5        2.73113   0.02227   0.00000   0.04639   0.04639   2.77752
    R6        2.58206   0.03644   0.00000   0.06000   0.05996   2.64202
    R7        2.45031   0.02541   0.00000   0.03259   0.03273   2.48304
    R8        2.59395  -0.00351   0.00000  -0.00962  -0.00969   2.58426
    R9        2.53318  -0.00879   0.00000  -0.01338  -0.01342   2.51976
   R10        2.51633   0.00136   0.00000   0.00333   0.00345   2.51977
   R11        2.50847  -0.00727   0.00000  -0.01069  -0.01075   2.49772
   R12        2.56921  -0.00433   0.00000  -0.00536  -0.00526   2.56395
   R13        2.53248  -0.02208   0.00000  -0.03385  -0.03397   2.49851
   R14        1.91699  -0.00044   0.00000  -0.00080  -0.00080   1.91619
   R15        2.84957   0.00023   0.00000   0.00059   0.00059   2.85016
   R16        2.89365   0.00591   0.00000   0.01586   0.01586   2.90951
   R17        2.05960  -0.00123   0.00000  -0.00283  -0.00283   2.05677
   R18        2.07291  -0.00033   0.00000  -0.00078  -0.00078   2.07213
   R19        2.84375   0.01618   0.00000   0.04031   0.04031   2.88406
   R20        2.06651  -0.00327   0.00000  -0.00761  -0.00761   2.05890
   R21        2.06846  -0.00294   0.00000  -0.00685  -0.00685   2.06161
   R22        2.88854   0.00376   0.00000   0.01002   0.01002   2.89856
   R23        2.07417  -0.00106   0.00000  -0.00250  -0.00250   2.07167
   R24        2.07381  -0.00210   0.00000  -0.00493  -0.00493   2.06887
   R25        2.59837  -0.00120   0.00000  -0.00578  -0.00596   2.59241
   R26        2.78718   0.01357   0.00000   0.03095   0.03095   2.81813
   R27        2.62352   0.00870   0.00000   0.01534   0.01536   2.63888
   R28        2.62324   0.00710   0.00000   0.01250   0.01255   2.63579
   R29        2.87311   0.00840   0.00000   0.02186   0.02186   2.89497
   R30        2.07153   0.00017   0.00000   0.00039   0.00039   2.07192
   R31        2.07148   0.00003   0.00000   0.00007   0.00007   2.07155
   R32        2.06973  -0.00020   0.00000  -0.00048  -0.00048   2.06925
   R33        2.06232  -0.00218   0.00000  -0.00504  -0.00504   2.05728
   R34        2.63594   0.00224   0.00000   0.00401   0.00400   2.63994
   R35        2.04850  -0.00142   0.00000  -0.00320  -0.00320   2.04529
   R36        2.63588   0.00225   0.00000   0.00392   0.00394   2.63982
   R37        2.04673  -0.00236   0.00000  -0.00532  -0.00532   2.04142
   R38        2.63581   0.00336   0.00000   0.00571   0.00566   2.64147
   R39        2.63593   0.00378   0.00000   0.00640   0.00638   2.64231
   R40        2.73440   0.03555   0.00000   0.07445   0.07445   2.80885
   R41        2.05497  -0.00239   0.00000  -0.00547  -0.00547   2.04950
   R42        2.05498  -0.00232   0.00000  -0.00530  -0.00530   2.04968
   R43        2.06876  -0.00020   0.00000  -0.00046  -0.00046   2.06830
   R44        2.06846  -0.00019   0.00000  -0.00045  -0.00045   2.06800
   R45        2.06843  -0.00021   0.00000  -0.00050  -0.00050   2.06793
   R46        2.64000   0.00959   0.00000   0.01784   0.01786   2.65786
   R47        2.63984   0.00422   0.00000   0.00783   0.00785   2.64769
   R48        2.63591   0.00588   0.00000   0.01083   0.01083   2.64675
   R49        2.72168   0.03138   0.00000   0.06435   0.06435   2.78603
   R50        2.63589   0.00021   0.00000  -0.00006  -0.00006   2.63583
   R51        2.05564  -0.00282   0.00000  -0.00645  -0.00645   2.04919
   R52        2.63593  -0.00169   0.00000  -0.00331  -0.00333   2.63260
   R53        2.05523  -0.00250   0.00000  -0.00572  -0.00572   2.04952
   R54        2.63577  -0.00147   0.00000  -0.00335  -0.00337   2.63240
   R55        2.05242  -0.00129   0.00000  -0.00294  -0.00294   2.04949
   R56        2.05251  -0.00152   0.00000  -0.00346  -0.00346   2.04905
    A1        1.88024   0.00033   0.00000   0.00149   0.00149   1.88173
    A2        2.22421  -0.00594   0.00000  -0.02374  -0.02385   2.20036
    A3        1.85602  -0.00003   0.00000   0.01075   0.01075   1.86678
    A4        2.20295   0.00597   0.00000   0.01299   0.01287   2.21582
    A5        1.80910   0.01315   0.00000   0.03504   0.03513   1.84423
    A6        1.72859   0.01782   0.00000   0.05907   0.05920   1.78778
    A7        1.84550   0.00571   0.00000   0.02050   0.02056   1.86606
    A8        2.02641  -0.01166   0.00000  -0.04327  -0.04339   1.98302
    A9        2.12851   0.00715   0.00000   0.02755   0.02761   2.15612
   A10        2.12827   0.00451   0.00000   0.01572   0.01578   2.14405
   A11        1.82441   0.00950   0.00000   0.02403   0.02380   1.84821
   A12        1.98981  -0.01733   0.00000  -0.04371  -0.04347   1.94634
   A13        2.11429   0.02316   0.00000   0.06655   0.06643   2.18072
   A14        2.17908  -0.00583   0.00000  -0.02284  -0.02296   2.15612
   A15        1.94646   0.00609   0.00000   0.02308   0.02308   1.96954
   A16        1.97874  -0.00642   0.00000  -0.03408  -0.03425   1.94449
   A17        1.88418   0.00056   0.00000   0.00729   0.00724   1.89142
   A18        1.86832   0.00275   0.00000   0.01923   0.01946   1.88778
   A19        1.91295  -0.00349   0.00000  -0.01148  -0.01155   1.90140
   A20        1.87134   0.00022   0.00000  -0.00523  -0.00527   1.86607
   A21        1.94440   0.02210   0.00000   0.07664   0.07676   2.02116
   A22        1.92201  -0.00998   0.00000  -0.04638  -0.04590   1.87611
   A23        1.90789  -0.00704   0.00000  -0.01824  -0.01917   1.88872
   A24        1.94742  -0.00755   0.00000  -0.03192  -0.03103   1.91639
   A25        1.93029  -0.00437   0.00000  -0.00286  -0.00330   1.92699
   A26        1.80698   0.00513   0.00000   0.01700   0.01648   1.82345
   A27        1.94204   0.00601   0.00000   0.02210   0.02210   1.96414
   A28        1.91564  -0.00228   0.00000  -0.00999  -0.01000   1.90564
   A29        1.91870  -0.00194   0.00000  -0.00585  -0.00594   1.91276
   A30        1.91519  -0.00169   0.00000  -0.00544  -0.00539   1.90981
   A31        1.90715  -0.00125   0.00000  -0.00065  -0.00067   1.90649
   A32        1.86345   0.00091   0.00000  -0.00118  -0.00124   1.86222
   A33        1.82987  -0.00204   0.00000  -0.00945  -0.00969   1.82019
   A34        2.14896   0.01905   0.00000   0.06032   0.06041   2.20937
   A35        2.30435  -0.01701   0.00000  -0.05087  -0.05077   2.25358
   A36        2.08607   0.00443   0.00000   0.01380   0.01373   2.09980
   A37        2.08614   0.00816   0.00000   0.02529   0.02522   2.11136
   A38        2.11097  -0.01259   0.00000  -0.03910  -0.03905   2.07193
   A39        1.94613   0.00559   0.00000   0.02163   0.02161   1.96774
   A40        1.91784  -0.00200   0.00000  -0.00825  -0.00835   1.90949
   A41        1.91769  -0.00247   0.00000  -0.01077  -0.01089   1.90679
   A42        1.90569  -0.00105   0.00000   0.00006   0.00010   1.90579
   A43        1.90345  -0.00054   0.00000   0.00298   0.00303   1.90649
   A44        1.87144   0.00027   0.00000  -0.00664  -0.00674   1.86471
   A45        2.13166  -0.00453   0.00000  -0.00800  -0.00789   2.12377
   A46        2.21156  -0.00173   0.00000   0.00063   0.00075   2.21230
   A47        1.93997   0.00626   0.00000   0.00737   0.00714   1.94711
   A48        1.88296   0.02617   0.00000   0.09415   0.09425   1.97721
   A49        1.88353  -0.00282   0.00000   0.01097   0.01082   1.89435
   A50        1.90002  -0.01085   0.00000  -0.03982  -0.03909   1.86094
   A51        1.94042  -0.00894   0.00000  -0.03270  -0.03415   1.90627
   A52        1.99594  -0.00766   0.00000  -0.03385  -0.03381   1.96212
   A53        1.85795   0.00354   0.00000   0.00105   0.00006   1.85801
   A54        2.08611   0.00630   0.00000   0.02105   0.02106   2.10717
   A55        2.12673  -0.00526   0.00000  -0.01996  -0.01997   2.10676
   A56        2.07013  -0.00103   0.00000  -0.00098  -0.00099   2.06914
   A57        2.08619   0.00565   0.00000   0.01878   0.01874   2.10492
   A58        2.12342  -0.00493   0.00000  -0.01818  -0.01833   2.10508
   A59        2.07093  -0.00058   0.00000   0.00130   0.00115   2.07208
   A60        2.09454  -0.00790   0.00000  -0.02646  -0.02654   2.06800
   A61        2.09421   0.00395   0.00000   0.01322   0.01324   2.10744
   A62        2.09443   0.00395   0.00000   0.01323   0.01325   2.10768
   A63        2.09428   0.00382   0.00000   0.01148   0.01142   2.10570
   A64        2.07812   0.00063   0.00000   0.00564   0.00567   2.08379
   A65        2.11078  -0.00445   0.00000  -0.01712  -0.01709   2.09369
   A66        2.09427   0.00472   0.00000   0.01424   0.01423   2.10850
   A67        2.07808   0.00017   0.00000   0.00425   0.00425   2.08233
   A68        2.11072  -0.00489   0.00000  -0.01843  -0.01843   2.09229
   A69        1.93708   0.00063   0.00000   0.00229   0.00227   1.93935
   A70        1.93755   0.00038   0.00000   0.00113   0.00111   1.93866
   A71        1.92442   0.00334   0.00000   0.01608   0.01604   1.94046
   A72        1.89035  -0.00108   0.00000  -0.00692  -0.00692   1.88343
   A73        1.88646  -0.00179   0.00000  -0.00694  -0.00698   1.87948
   A74        1.88631  -0.00167   0.00000  -0.00645  -0.00649   1.87982
   A75        2.12604   0.00071   0.00000   0.00141   0.00139   2.12743
   A76        2.06810   0.00530   0.00000   0.01556   0.01554   2.08364
   A77        2.08905  -0.00601   0.00000  -0.01697  -0.01693   2.07212
   A78        2.09700  -0.00156   0.00000  -0.00304  -0.00303   2.09397
   A79        2.12113  -0.00094   0.00000  -0.00377  -0.00378   2.11735
   A80        2.06506   0.00249   0.00000   0.00682   0.00681   2.07187
   A81        2.09711   0.00459   0.00000   0.01518   0.01520   2.11231
   A82        2.11131  -0.00560   0.00000  -0.02239  -0.02239   2.08891
   A83        2.07477   0.00101   0.00000   0.00721   0.00720   2.08196
   A84        2.09446   0.00319   0.00000   0.01080   0.01078   2.10525
   A85        2.11219  -0.00430   0.00000  -0.01750  -0.01749   2.09470
   A86        2.07653   0.00111   0.00000   0.00670   0.00671   2.08323
   A87        2.09443   0.00067   0.00000  -0.00044  -0.00046   2.09397
   A88        2.09458  -0.00049   0.00000  -0.00050  -0.00049   2.09409
   A89        2.09418  -0.00017   0.00000   0.00094   0.00095   2.09513
   A90        1.99987  -0.02136   0.00000  -0.06034  -0.06017   1.93970
   A91        2.15211   0.00978   0.00000   0.02739   0.02729   2.17940
   A92        2.13120   0.01158   0.00000   0.03294   0.03283   2.16403
   A93        2.09432  -0.00087   0.00000  -0.00553  -0.00556   2.08876
   A94        2.09465  -0.00001   0.00000   0.00077   0.00078   2.09543
   A95        2.09422   0.00088   0.00000   0.00476   0.00478   2.09899
    D1       -1.12815  -0.00067   0.00000  -0.00895  -0.01004  -1.13819
    D2        0.97007   0.00180   0.00000   0.01117   0.01214   0.98221
    D3        2.97986  -0.00114   0.00000  -0.00240  -0.00227   2.97758
    D4       -3.14132   0.00033   0.00000   0.00641   0.00647  -3.13485
    D5        0.00083   0.00024   0.00000   0.00505   0.00502   0.00585
    D6        0.00008  -0.00105   0.00000  -0.01530  -0.01506  -0.01498
    D7       -3.14096  -0.00114   0.00000  -0.01666  -0.01651   3.12571
    D8       -1.57121   0.00229   0.00000   0.02781   0.02810  -1.54311
    D9        0.59924   0.00105   0.00000   0.00759   0.00712   0.60635
[...]
 ,-0.00000860,-0.00000004,-0.00000076,0.00000049,0.00000018,0.00000213,
 0.00000191,0.00000052,0.00000087,0.00000135,-0.00008238,-0.00001125,-0
 .00000371,-0.00001717,-0.00002506,0.00005658,0.00004403,-0.00038192,0.
 00023854,0.00006142,-0.00007203,-0.00002487,-0.00021660,0.00000693,-0.
 00013022,0.00000008,0.00000017,0.00000007,-0.00242553,-0.00107337,0.00
 513565,-0.00213168,-0.00805150,-0.00118501,0.00076508,0.00046140,-0.00
 070736,-0.05261558,-0.12109523,-0.11575294,-0.00071315,-0.00322464,0.0
 0549048,0.00067427,0.00178832,-0.00246788,-0.00363891,-0.00356309,0.00
 131689,-0.00000026,0.00000017,-0.00000042,-0.00000065,-0.00000154,-0.0
 0000161,-0.00000168,0.00000060,0.00000113,-0.00001043,-0.00000247,-0.0
 0000060,-0.00000056,0.00000011,0.00000054,0.00000014,0.00000013,0.0000
 0016,-0.00000021,0.00000025,-0.00000022,-0.00000012,-0.00000043,0.0000
 0026,-0.00000012,-0.00000068,-0.00000004,0.00000032,0.00000026,0.00000
 035,-0.00001342,0.00000491,-0.00000081,-0.00001694,-0.00000784,-0.0000
 0922,-0.00000402,-0.00000930,-0.00002496,-0.00000166,-0.00000364,-0.00
 002938,-0.00000018,-0.00000003,-0.00000003,0.,0.00000014,-0.00000009,-
 0.00000012,0.00000008,0.00000025,0.00016923,0.00026623,-0.00065950,0.0
 0000026,0.00000174,0.00000078,0.05856775,0.13325319,0.11164683,-0.0000
 0637,-0.00001036,0.00000190,-0.00000211,-0.00001292,-0.00000856,-0.000
 04235,-0.00000842,0.00000963,-0.00001753,-0.00002186,0.00001131,-0.000
 04560,0.00004546,0.00003546,0.00001827,-0.00001380,0.00001308,-0.00000
 852,0.00002234,-0.00001621,-0.00005795,0.00007207,0.00002043,0.0000273
 3,-0.00000317,-0.00003723,0.00000052,-0.00000038,0.00000677,0.00005393
 ,0.00001165,-0.00002262,-0.00000078,0.00000155,-0.00000509,0.00000980,
 0.00002924,0.00000737,-0.00005107,0.00000619,0.00001644,-0.00000139,-0
 .00000220,0.00000125,-0.00000043,0.00000851,0.00000879,-0.00000072,0.0
 0000402,0.00000406,-0.00000222,0.00000296,-0.00012082,-0.00001537,-0.0
 0002692,-0.00006285,-0.00010433,0.00118286,0.00044867,-0.00036452,-0.0
 0013839,-0.00005672,-0.00006662,0.00003011,-0.00006154,0.00000062,0.00
 000134,-0.00000011,-0.00380742,-0.00057200,-0.00342999,-0.00055761,-0.
 00076293,-0.00026842,-0.01341844,0.02427537,0.00729590,0.00046966,-0.0
 0165994,-0.00269149,-0.15780471,0.13093202,0.03086013,0.00012471,-0.00
 020157,0.00021672,0.01061292,-0.01036764,-0.00313227,0.00000082,0.0000
 0029,-0.00000073,-0.00000088,-0.00000472,-0.00000833,-0.00001438,0.000
 00386,-0.00000055,-0.00003184,-0.00000942,-0.00000209,-0.00000182,0.00
 000036,0.00000234,-0.00000025,-0.00000022,0.00000139,0.00000004,0.0000
 0024,-0.00000014,0.00000009,0.00000014,-0.00000005,-0.00000020,-0.0000
 0286,-0.00000016,0.00000160,0.00000081,0.00000186,-0.00004621,0.000009
 99,-0.00002621,-0.00002900,-0.00001183,-0.00000498,0.00000522,0.000027
 73,0.00003644,-0.00000136,0.00001300,0.00003395,-0.00000029,-0.0000000
 7,0.00000006,0.00000007,-0.00000021,0.00000018,-0.00000031,0.00000037,
 0.00000076,0.00086510,-0.00083648,0.00108411,-0.00000076,0.00000554,0.
 00000169,0.00036045,-0.00051082,-0.00017954,0.16350455,0.00000163,0.00
 000325,-0.00000044,0.00000116,0.00000363,0.00000309,0.00001226,0.00000
 160,-0.00000275,0.00000521,0.00000650,-0.00000355,-0.00004778,0.000074
 22,0.00001809,0.00009426,-0.00011437,-0.00003652,0.00008917,-0.0001187
 6,-0.00008326,0.00000252,-0.00001639,0.00001002,-0.00000830,0.00000090
 ,0.00001092,-0.00000048,0.00000014,-0.00000228,-0.00001929,-0.00000057
 ,0.00001422,0.00000025,-0.00000046,0.00000135,-0.00000323,-0.00000881,
 -0.00000147,0.00001565,-0.00002258,0.00000502,0.,0.00000085,-0.0000005
 7,0.00000099,-0.00000289,-0.00000254,-0.00000014,-0.00000050,-0.000001
 74,0.00002622,-0.00002198,-0.00001247,-0.00000837,0.00001061,-0.000020
 08,-0.00019901,0.00003641,-0.00000877,0.00000959,0.00005774,-0.0000445
 3,0.00005475,-0.00002103,0.00006398,-0.00000013,-0.00000047,0.00000004
 ,-0.00031519,0.00278248,-0.00231283,-0.00070579,-0.00009395,0.00027572
 ,-0.00255708,0.00451273,-0.00046190,-0.00241078,-0.00124504,-0.0048912
 9,0.13100514,-0.22071518,-0.05309947,-0.00010776,-0.00007327,0.0004680
 5,0.01673884,-0.01410197,-0.00422876,-0.00000006,-0.00000008,0.0000003
 1,0.00000055,0.00000152,0.00000273,0.00000436,-0.00000004,-0.00000093,
 0.00001103,0.00000340,0.00000186,0.00000072,-0.00000006,-0.00000077,-0
 .00000012,-0.00000004,-0.00000029,0.00000007,-0.00000019,0.00000008,0.
 00000016,-0.00000023,0.00000011,0.,0.00000092,-0.00000002,-0.00000053,
 -0.00000030,-0.00000059,0.00000910,0.00000173,0.00000745,0.00000990,0.
 00000372,0.00000201,-0.00001821,0.00000405,0.00000340,-0.00003204,0.00
 000300,0.00000928,0.00000022,0.00000003,-0.00000002,-0.00000006,0.0000
 0001,0.,0.00000002,-0.00000012,-0.00000025,-0.00024060,-0.00023464,0.0
 0188886,-0.00000001,-0.00000183,-0.00000073,0.00085395,-0.00075968,-0.
 00015572,-0.14159448,0.22983231,0.00000058,0.00000001,-0.00000016,0.00
 000144,0.00000019,-0.00000091,-0.00000047,0.00000036,0.00000021,-0.000
 00011,0.00000018,0.00000022,0.00015785,-0.00018055,-0.00000615,-0.0000
 7707,0.00006777,0.00009061,0.00003150,0.00003637,0.00000256,0.00006180
 ,-0.00000576,-0.00001469,0.00000104,-0.00000043,0.00000051,0.00000024,
 0.00000022,0.00000063,0.00001325,-0.00000965,-0.00000737,-0.00000010,0
 .00000003,-0.00000003,0.00000009,-0.00000004,-0.00000078,-0.00001901,0
 .00004478,-0.00001418,-0.00000017,-0.00000009,0.00000005,-0.00000106,0
 .00000042,-0.00000015,-0.00000118,0.00000007,0.00000064,-0.00000051,0.
 00003218,-0.00001495,0.00004601,-0.00001767,0.00007069,-0.00002707,0.0
 0040996,0.00012612,-0.00002630,-0.00005972,-0.00002480,0.00000612,-0.0
 0005754,-0.00010775,0.,0.00000007,0.00000014,-0.00352214,-0.00252678,0
 .00514818,-0.00028567,0.00009592,-0.00094473,-0.00632042,0.00690927,0.
 00566113,-0.00262392,-0.00469858,0.00430045,0.03087952,-0.05337145,-0.
 05589676,0.00011564,0.00060038,-0.00078683,0.00993614,-0.01131474,0.00
 117058,-0.00000016,0.00000010,-0.00000011,-0.00000010,0.00000006,-0.00
 000044,0.00000188,0.00000132,-0.00000009,-0.00000528,-0.00000053,-0.00
 000277,-0.00000014,-0.00000010,0.00000013,0.00000009,0.00000010,-0.000
 00014,-0.00000015,0.00000021,0.,0.00000006,-0.00000006,-0.00000007,0.0
 0000038,-0.00000003,0.00000006,0.00000004,-0.00000021,0.00000001,-0.00
 000826,-0.00000405,-0.00000423,-0.00000128,0.00000085,0.00000235,0.000
 02002,0.00000658,-0.00000885,0.00003653,-0.00003452,0.00000221,-0.0000
 0005,-0.00000004,-0.00000003,-0.00000004,0.00000008,-0.00000007,0.0000
 0006,0.,0.00000003,0.00141078,0.00181858,-0.00288027,-0.00000062,0.000
 00013,0.00000045,0.00047474,-0.00049695,-0.00015224,-0.03122241,0.0606
 8551,0.04699133,-0.00000321,-0.00000472,0.00000129,-0.00000198,-0.0000
 0528,-0.00000374,-0.00001885,-0.00000297,0.00000426,-0.00000878,-0.000
 00891,0.00000408,-0.00009017,0.00012807,0.00000178,-0.00000679,0.00005
 126,0.00002027,-0.00016959,0.00024512,0.00014089,-0.00013987,0.0001199
 9,0.00007897,0.00001322,-0.00000202,-0.00001532,0.00000055,-0.00000013
 ,0.00000304,0.00002718,0.00000176,-0.00001337,-0.00000038,0.00000074,-
 0.00000222,0.00000272,0.00001374,0.00000291,-0.00002307,0.00002736,-0.
 00001034,-0.00000031,-0.00000096,0.00000071,0.00000154,0.00000321,0.00
 000360,0.00000060,0.00000141,0.00000177,-0.00002809,-0.00002037,-0.000
 00485,0.00001750,-0.00001975,0.00001513,0.00001797,-0.00010065,0.00022
 229,0.00000841,-0.00003503,0.00000240,-0.00009516,0.00001780,-0.000049
 89,0.00000014,0.00000052,-0.00000015,0.00038466,0.00005560,0.00044756,
 0.00052182,0.00359740,-0.00005888,0.00175290,-0.00122096,-0.00216435,-
 0.01360305,-0.00271404,-0.00618259,-0.00592864,0.00186416,-0.00173861,
 -0.00035024,-0.00070246,-0.00047597,-0.31370429,-0.00725374,-0.0807941
 3,0.00000041,0.00000021,-0.00000037,-0.00000042,-0.00000220,-0.0000036
 5,-0.00000655,0.00000076,-0.00000029,-0.00001450,-0.00000450,-0.000001
 79,-0.00000094,0.00000011,0.00000097,0.00000003,-0.00000008,0.00000049
 ,0.00000009,0.00000013,-0.00000004,-0.00000026,0.00000006,-0.00000021,
 -0.00000019,-0.00000122,-0.00000016,0.00000060,0.00000009,0.00000058,-
 0.00001121,0.00000584,-0.00000510,-0.00001504,-0.00000351,0.00000018,0
 .00001066,-0.00000198,0.00001940,0.00001281,0.00000066,-0.00000638,-0.
 00000025,-0.00000005,0.00000005,0.00000002,-0.00000013,0.00000012,-0.0
 0000013,0.00000021,0.00000036,-0.00042826,0.00015507,-0.00006147,0.000
 00018,0.00000275,0.00000080,0.00061355,-0.00050208,0.00107569,0.000443
 25,-0.00065226,0.00094042,0.33076957,-0.00000073,-0.00000080,0.0000003
 2,-0.00000014,-0.00000096,-0.00000062,-0.00000449,-0.00000017,0.000001
 39,-0.00000113,-0.00000205,0.00000195,0.00015720,-0.00022352,0.0000255
 7,-0.00002637,-0.00001067,0.00003578,0.00012234,-0.00017696,-0.0001804
 8,0.00010880,-0.00007006,-0.00005282,0.00000263,-0.00000090,-0.0000033
 6,0.00000007,-0.00000004,0.00000074,0.00000755,0.00000105,-0.00000594,
 -0.00000002,0.00000021,-0.00000055,0.00000226,0.00000216,0.00000137,-0
 .00000389,0.00005768,-0.00003303,-0.00000059,-0.00000017,-0.00000003,-
 0.00000062,0.00000128,-0.00000043,-0.00000042,0.00000051,-0.00000020,-
 0.00005057,-0.00004316,-0.00001995,0.00006975,-0.00002552,0.00002413,-
 0.00018599,-0.00000336,0.00038440,0.00008262,-0.00002541,0.00004083,-0
 .00009585,-0.00000018,-0.00000125,0.00000007,0.00000015,0.00000004,0.0
 0004011,-0.00109034,-0.00001697,0.00315689,-0.00185591,-0.00357283,-0.
 00037677,-0.00255995,-0.00488235,0.02420818,0.00442348,0.00744030,-0.0
 2527220,0.00340460,-0.00703388,0.00093292,0.00058151,0.00034121,-0.007
 53642,-0.05497972,-0.01098778,0.00000012,0.00000004,-0.00000005,0.0000
 0023,-0.00000008,-0.00000055,-0.00000104,0.00000030,-0.00000058,-0.000
 00444,-0.00000176,0.,-0.00000009,0.00000003,0.00000024,-0.00000004,-0.
 00000011,0.00000015,0.00000014,0.,0.00000003,0.00000027,-0.00000014,0.
 00000013,0.,-0.00000024,0.00000004,-0.00000009,-0.00000014,0.00000027,
 0.00000046,0.00000196,0.00000252,-0.00000439,0.00000041,0.00000345,-0.
 00000279,0.00001167,-0.00000408,0.00001003,0.00000733,-0.00001057,0.00
 000006,0.,-0.00000002,-0.00000006,-0.00000006,0.00000010,-0.00000009,0
 .00000002,0.00000006,-0.00120145,0.00005835,-0.00038160,0.00000001,0.0
 0000057,0.00000016,-0.00111330,0.00007962,0.00184870,0.00007851,0.0002
 0941,0.00208013,0.00694299,0.05225782,-0.00000068,-0.00000124,0.000000
 17,-0.00000120,-0.00000144,-0.00000151,-0.00000333,-0.00000177,0.00000
 057,-0.00000236,-0.00000176,-0.00000007,0.00002459,-0.00000744,-0.0001
 0255,-0.00008901,0.00002377,-0.00009804,0.00000806,0.00002559,-0.00000
 274,0.00000019,-0.00002394,0.00002679,0.00000283,-0.00000009,-0.000003
 84,-0.00000016,-0.00000019,0.00000043,0.00000150,0.00000438,0.00000259
 ,-0.00000010,-0.00000013,-0.00000029,-0.00000115,0.00000324,0.00000052
 ,-0.00000152,-0.00006936,0.00003742,0.00000015,-0.00000004,0.00000006,
 0.00000126,0.00000079,0.00000170,0.00000122,-0.00000015,0.00000099,0.0
 0004747,0.00007489,-0.00001301,-0.00008037,0.00006096,-0.00003974,0.00
 034358,0.00043834,-0.00066053,-0.00021328,0.00001233,-0.00002076,0.000
 14783,0.00000373,0.00005146,0.00000015,0.00000006,-0.00000009,0.000359
 30,-0.00014102,-0.00091382,-0.00025331,-0.00369911,0.00531633,-0.00202
 983,-0.00485633,0.00431857,0.00718229,-0.00037916,0.00525462,-0.014650
 24,0.00065020,-0.00030903,0.00017398,0.00006187,0.00041952,-0.08096244
 ,-0.01112757,-0.06508408,0.00000028,0.00000023,-0.00000008,0.00000003,
 -0.00000084,-0.00000048,-0.00000232,-0.00000052,-0.00000018,-0.0000000
 9,0.00000006,-0.00000059,-0.00000023,0.00000002,0.00000022,0.00000006,
 0.00000004,-0.00000004,-0.00000019,0.00000013,-0.00000011,-0.00000010,
 -0.00000001,0.00000002,-0.00000025,-0.00000028,0.00000003,0.00000021,0
 .00000041,0.,-0.00000907,-0.00000336,-0.00001259,0.00000423,-0.0000050
 3,-0.00000647,-0.00000283,0.00000364,-0.00000988,0.00001928,0.00002320
 ,-0.00001241,-0.00000012,-0.00000001,-0.00000001,0.00000004,0.00000008
 ,-0.00000012,0.00000006,0.00000001,0.00000014,-0.00069311,-0.00000747,
 -0.00012111,0.00000026,0.00000070,0.00000029,0.00082797,0.00207273,-0.
 00297497,0.00124712,0.00190173,-0.00270081,0.08860815,0.01497122,0.057
 66950,-0.00000191,-0.00000299,0.00000086,-0.00000423,-0.00000444,-0.00
 000373,-0.00002089,-0.00000329,0.00000366,-0.00000673,-0.00000492,0.00
 000699,0.00160486,0.00044501,-0.00534962,0.00185522,-0.00621613,0.0029
 4146,-0.34245738,0.09284835,0.15977124,-0.01510341,0.01014967,0.002089
 35,0.00001277,-0.00000885,-0.00002092,-0.00000569,0.00000186,0.0000011
 1,0.00002750,0.00000195,-0.00000968,0.00001242,-0.00000376,-0.00000189
 ,0.00000456,0.00001711,0.00000419,-0.00002980,-0.00002350,0.00002527,-
 0.00003340,0.00000056,-0.00000857,-0.00000186,0.00000163,0.00000585,0.
 00000285,-0.00000059,0.00000062,0.00003592,-0.00001056,0.00000350,-0.0
 0004174,-0.00000058,-0.00002001,0.00007462,-0.00001686,0.00005094,-0.0
 0001412,-0.00001511,-0.00004702,0.00000790,0.00004823,-0.00004068,0.00
 000507,0.00000222,0.00000595,0.00015516,0.00003017,0.00001656,0.000436
 32,0.00063799,0.00069543,-0.00005178,-0.00001878,-0.00004745,0.0001164
 1,-0.00044192,-0.00012158,0.00008145,-0.00004948,0.00000759,0.00325905
 ,0.00004596,0.00046775,0.00013553,0.00000229,-0.00009971,-0.00000136,0
 .00000046,-0.00000064,-0.00000125,-0.00000858,-0.00000421,-0.00000816,
 0.00000155,-0.00000156,-0.00001397,-0.00000326,-0.00000174,0.00000098,
 0.00000430,0.00000278,-0.00000188,0.00000105,-0.00000072,-0.00000141,-
 0.00000007,-0.00000088,0.00003093,0.00000474,0.00000688,-0.00000046,-0
 .00000106,0.00000006,0.00000076,0.00000055,0.00000081,-0.00001049,0.00
 000424,-0.00000969,-0.00001104,-0.00000532,-0.00000404,-0.00000349,-0.
 00001077,0.00005809,0.00000562,-0.00000233,0.00000416,0.00000411,0.000
 00028,-0.00000272,-0.00000123,0.00000057,-0.00000103,-0.00000215,0.000
 00093,0.00000177,0.00000914,-0.00003856,-0.00001497,0.00000045,0.00000
 234,0.00000070,-0.00008737,-0.00002207,0.00002632,0.00000437,-0.000026
 02,0.00000744,0.00004981,-0.00004021,-0.00000482,0.34998342,0.00000050
 ,0.00000047,0.00000014,-0.00000036,0.00000049,0.00000069,-0.00000077,-
 0.00000029,0.00000099,0.00000116,0.00000068,0.00000201,0.02994572,-0.0
 0225346,-0.01323184,-0.00879721,-0.00234166,0.00295295,0.09152534,-0.1
 0415403,-0.04908845,-0.01799368,0.01769339,0.01074074,0.00000243,-0.00
 000388,-0.00000360,-0.00000379,0.00000314,-0.00000063,0.00000475,-0.00
 000050,-0.00000264,0.00000184,0.00000152,-0.00000280,0.00000139,0.0000
 0291,0.00000144,-0.00001033,0.00000396,0.00000512,-0.00001849,-0.00000
 668,-0.00000339,-0.00000291,-0.00000046,0.00000074,0.00000052,-0.00000
 023,-0.00000176,-0.00000718,0.00000935,-0.00000761,-0.00000124,-0.0000
 0805,-0.00000075,0.00004482,0.00002955,-0.00000003,-0.00002776,-0.0000
 1588,-0.00000647,-0.00001346,0.00000808,-0.00000113,0.00000188,0.00000
 369,0.00000261,0.00003860,0.00007333,0.00005672,0.00117487,0.00098200,
 -0.00042651,-0.00001478,-0.00002436,0.00005631,0.00001821,-0.00032581,
 -0.00027121,0.00002698,0.00000168,-0.00000553,0.00118039,-0.00907850,-
 0.00166920,0.00008711,-0.00004006,0.00013920,0.00000097,0.00000004,0.0
 0000080,-0.00000027,-0.00000379,-0.00000137,-0.00000086,-0.00000060,-0
 .00000091,-0.00000142,0.00000005,-0.00000038,0.00000137,0.00000143,0.0
 0000109,-0.00000228,-0.00000276,-0.00000119,0.00000343,-0.00000024,0.0
 0000179,0.00001061,0.00001122,0.00000326,0.00000011,0.00000004,0.00000
 011,-0.00000021,-0.00000012,0.00000045,-0.00000433,0.00000017,-0.00000
 318,-0.00000291,-0.00000087,-0.00000081,0.00000077,-0.00000535,-0.0000
 0347,0.00000331,-0.00000015,-0.00000058,0.00000232,0.00000003,-0.00000
 217,-0.00000213,-0.00000054,0.00000069,-0.00000141,-0.00000070,-0.0000
 0118,0.00000183,-0.00001407,-0.00000013,-0.00000014,-0.00000026,-0.000
 00037,0.00007063,0.00003182,0.00001407,0.00000708,0.00000428,-0.000012
 35,0.00002299,-0.00002779,-0.00000606,-0.09727398,0.09944780,0.0000025
 2,0.00000378,-0.00000160,0.00000038,0.00000355,0.00000205,0.00001182,0
 .00000383,-0.00000422,0.00000617,0.00000856,-0.00000362,-0.00304864,0.
 00043835,-0.00860782,0.00250854,0.00177310,0.00838931,0.15961325,-0.04
 957432,-0.08572139,-0.00023306,-0.00213356,-0.01209930,-0.00000564,-0.
 00000363,0.00000787,-0.00000587,0.00000123,-0.00000042,-0.00002120,-0.
 00000075,0.00001242,-0.00000045,-0.00000235,0.00000331,-0.00000339,-0.
 00000626,-0.00000262,0.00001139,-0.00002062,-0.00001552,-0.00000440,0.
 00000257,-0.00000658,-0.00000132,-0.00000403,0.00000159,0.00000082,-0.
 00000160,-0.00000068,0.00000277,0.00000992,0.00002268,-0.00000259,0.00
 000958,0.00000300,-0.00002803,-0.00004275,-0.00004590,0.00002384,0.000
 02269,0.00000485,0.00002981,-0.00000708,0.00002249,0.00000265,-0.00000
 005,0.00000187,-0.00028074,-0.00002116,-0.00002798,0.00076688,0.000187
 45,0.00126848,-0.00009423,0.00006797,-0.00008321,0.00025196,-0.0001985
 2,-0.00008330,-0.00001991,0.00012506,0.00007878,0.00082595,-0.00136164
 ,0.00428761,0.00012474,0.00000937,0.00000234,-0.00000447,-0.00000093,-
 0.00000072,0.00000014,-0.00001081,0.00000594,0.00000342,0.00000111,-0.
 00000184,0.00000700,0.00000281,0.00000097,0.00000163,0.00000041,-0.000
 00219,-0.00000054,0.00000259,-0.00000111,-0.00000316,0.00000238,-0.000
 00212,0.00000380,-0.00000449,0.00000979,0.,0.00000097,0.00000004,-0.00
 000042,0.00000005,-0.00000045,0.00000796,-0.00000557,-0.00000607,0.000
 00663,0.00000257,0.00000047,-0.00000155,-0.00000664,-0.00001281,-0.000
 00655,-0.00000193,-0.00000364,-0.00000033,-0.00000146,-0.00000081,0.00
 000207,0.00000221,-0.00000134,0.00000166,-0.00000115,0.00000015,-0.000
 00306,0.00002366,0.00000122,0.00000009,-0.00000189,-0.00000013,-0.0000
 4580,-0.00005368,-0.00004670,-0.00000877,0.00000067,0.00000106,-0.0000
 0433,-0.00001533,-0.00001198,-0.16038947,0.05077578,0.09266780\\-0.000
 00119,-0.00000109,0.00000214,-0.00000256,0.00000218,0.00000096,-0.0000
 0038,-0.00000004,0.00000347,-0.00000777,0.00000108,-0.00000463,-0.0000
 0535,0.00000647,-0.00000489,0.00001142,0.00000085,-0.00000984,-0.00000
 889,0.00000218,0.00000721,-0.00000356,-0.00001783,-0.00000144,0.000004
 74,0.00000146,0.00000280,0.00000181,-0.00000063,0.00000277,0.00000078,
 -0.00000105,-0.00000304,-0.00000196,0.00000098,-0.00000125,-0.00000648
 ,0.00000007,-0.00000305,-0.00000366,0.00000177,0.00000280,0.00000107,0
 .00000077,0.00000159,0.00000585,-0.00000045,0.00000415,-0.00000203,0.0
 0000028,-0.00000023,0.00000228,-0.00000044,0.00000044,0.00000188,-0.00
 000233,-0.00000046,-0.00000038,-0.00000004,-0.00000047,0.00000063,0.00
 000212,-0.00000034,-0.00000262,0.00000048,-0.00000041,0.00000154,0.000
 00079,0.00000137,-0.00000108,-0.00000667,-0.00000331,0.00000349,0.0000
 0230,-0.00000111,-0.00000173,0.00000167,-0.00000099,-0.00000037,-0.000
 00155,-0.00000268,0.00000047,0.00000061,-0.00000097,0.00000924,0.00000
 739,0.00000342,0.00000048,-0.00000279,-0.00000091,-0.00000042,0.000001
 45,0.00000044,-0.00000055,0.00000091,0.00000006,-0.00000007,0.00000022
 ,0.00000081,-0.00000132,-0.00000061,0.00000205,0.00000206,0.00000026,0
 .00000176,0.00000204,0.00000060,0.00000252,0.00000070,0.00000037,0.000
 00081,0.00000077,0.00000085,0.00000020,-0.00000110,0.00000084,0.000002
 09,-0.00000121,-0.00000002,0.00000004,-0.00000064,0.00000008,-0.000000
 14,-0.00000033,0.00000158,0.00000055,0.00000050,0.00000084,0.00000080,
 0.00000107,-0.00000002,-0.00000051,0.00000124,0.00000064,0.00000142,0.
 00000142,0.00000068,0.00000099,0.00000160,0.00000065,0.00000116,-0.000
 00106,-0.00000142,-0.00000049,-0.00000199,-0.00000196,-0.00000073,-0.0
 0000049,-0.00000041,-0.00000236,0.00000012,-0.00000103,-0.00000146,0.0
 0000061,-0.00000160,-0.00000318,0.00000137,-0.00000145,0.00000009\\\@
 The archive entry for this job was punched.


 THERE IS NO SCIENCE WITHOUT FANCY, NOR ART WITHOUT FACTS.
     -- VLADIMIR NABAKOV
 Job cpu time:       2 days 14 hours  6 minutes 29.2 seconds.
 Elapsed time:       0 days  0 hours 34 minutes 29.1 seconds.
 File lengths (MBytes):  RWF=   3083 Int=      0 D2E=      0 Chk=     73 Scr=      1
 Normal termination of Gaussian 16 at Sat Feb 28 18:59:56 2026.
