SLURM_NODELIST orfoz307
NUMBER OF TASKS 1
NUMBER OF CORES=112
 Entering Gaussian System, Link 0=/arf/sw/apps/gaussian/avx/g16/g16
 Initial command:
 /arf/sw/apps/gaussian/avx/g16/l1.exe "/tmp/5347265/Gau-1151547.inp" -scrdir="/tmp/5347265/"
 Entering Link 1 = /arf/sw/apps/gaussian/avx/g16/l1.exe PID=   1151548.
  
 Copyright (c) 1988-2019, Gaussian, Inc.  All Rights Reserved.
  
 This is part of the Gaussian(R) 16 program.  It is based on
 the Gaussian(R) 09 system (copyright 2009, Gaussian, Inc.),
 the Gaussian(R) 03 system (copyright 2003, Gaussian, Inc.),
 the Gaussian(R) 98 system (copyright 1998, Gaussian, Inc.),
 the Gaussian(R) 94 system (copyright 1995, Gaussian, Inc.),
 the Gaussian 92(TM) system (copyright 1992, Gaussian, Inc.),
 the Gaussian 90(TM) system (copyright 1990, Gaussian, Inc.),
 the Gaussian 88(TM) system (copyright 1988, Gaussian, Inc.),
 the Gaussian 86(TM) system (copyright 1986, Carnegie Mellon
 University), and the Gaussian 82(TM) system (copyright 1983,
 Carnegie Mellon University). Gaussian is a federally registered
 trademark of Gaussian, Inc.
  
 This software contains proprietary and confidential information,
 including trade secrets, belonging to Gaussian, Inc.
  
 This software is provided under written license and may be
 used, copied, transmitted, or stored only in accord with that
 written license.
  
 The following legend is applicable only to US Government
 contracts under FAR:
  
                    RESTRICTED RIGHTS LEGEND
  
 Use, reproduction and disclosure by the US Government is
 subject to restrictions as set forth in subparagraphs (a)
 and (c) of the Commercial Computer Software - Restricted
 Rights clause in FAR 52.227-19.
  
 Gaussian, Inc.
 340 Quinnipiac St., Bldg. 40, Wallingford CT 06492
  
  
 ---------------------------------------------------------------
 Warning -- This program may not be used in any manner that
 competes with the business of Gaussian, Inc. or will provide
 assistance to any competitor of Gaussian, Inc.  The licensee
 of this program is prohibited from giving any competitor of
 Gaussian, Inc. access to this program.  By using this program,
 the user acknowledges that Gaussian, Inc. is engaged in the
 business of creating and licensing software in the field of
 computational chemistry and represents and warrants to the
 licensee that it is not a competitor of Gaussian, Inc. and that
 it will not use this program in any manner prohibited above.
 ---------------------------------------------------------------
  

 Cite this work as:
 Gaussian 16, Revision C.01,
 M. J. Frisch, G. W. Trucks, H. B. Schlegel, G. E. Scuseria, 
 M. A. Robb, J. R. Cheeseman, G. Scalmani, V. Barone, 
 G. A. Petersson, H. Nakatsuji, X. Li, M. Caricato, A. V. Marenich, 
 J. Bloino, B. G. Janesko, R. Gomperts, B. Mennucci, H. P. Hratchian, 
 J. V. Ortiz, A. F. Izmaylov, J. L. Sonnenberg, D. Williams-Young, 
 F. Ding, F. Lipparini, F. Egidi, J. Goings, B. Peng, A. Petrone, 
 T. Henderson, D. Ranasinghe, V. G. Zakrzewski, J. Gao, N. Rega, 
 G. Zheng, W. Liang, M. Hada, M. Ehara, K. Toyota, R. Fukuda, 
 J. Hasegawa, M. Ishida, T. Nakajima, Y. Honda, O. Kitao, H. Nakai, 
 T. Vreven, K. Throssell, J. A. Montgomery, Jr., J. E. Peralta, 
 F. Ogliaro, M. J. Bearpark, J. J. Heyd, E. N. Brothers, K. N. Kudin, 
 V. N. Staroverov, T. A. Keith, R. Kobayashi, J. Normand, 
 K. Raghavachari, A. P. Rendell, J. C. Burant, S. S. Iyengar, 
 J. Tomasi, M. Cossi, J. M. Millam, M. Klene, C. Adamo, R. Cammi, 
 J. W. Ochterski, R. L. Martin, K. Morokuma, O. Farkas, 
 J. B. Foresman, and D. J. Fox, Gaussian, Inc., Wallingford CT, 2019.
 
 ******************************************
 Gaussian 16:  ES64L-G16RevC.01  3-Jul-2019
                 2-Mar-2026 
 ******************************************
 %nprocshared=112
 Will use up to  112 processors via shared memory.
 %mem=10GB
 %chk=Amrinone.chk
 ----------------------------------------------------------------------
 # opt freq=raman b3lyp/6-311++g(d,p) scrf=(pcm, solvent=water) geom=co
 nnectivity
 ----------------------------------------------------------------------
 1/18=20,19=15,26=3,38=1,57=2/1,3;
 2/9=110,12=2,17=6,18=5,40=1/2;
 3/5=4,6=6,7=1111,11=2,25=1,30=1,70=2201,71=1,72=1,74=-5/1,2,3;
 4//1;
 5/5=2,38=5,53=1/2;
 6/7=2,8=2,9=2,10=2,28=1/1;
 7//1,2,3,16;
 1/18=20,19=15,26=3/3(2);
 2/9=110/2;
 99//99;
 2/9=110/2;
 3/5=4,6=6,7=1111,11=2,25=1,30=1,70=2205,71=1,72=1,74=-5/1,2,3;
 4/5=5,16=3,69=1/1;
 5/5=2,38=5,53=1/2;
 7//1,2,3,16;
 1/18=20,19=15,26=3/3(-5);
 2/9=110/2;
 6/7=2,8=2,9=2,10=2,19=2,28=1/1;
 99/9=1/99;
 --------
 Amrinone
 --------
 Symbolic Z-matrix:
 Charge =  0 Multiplicity = 1
 O                     4.10262  -0.65379  -0.11812 
 N                     1.98898  -1.50775  -0.31409 
 N                     3.14715   1.85314   0.33508 
 N                    -4.25601   0.20789   0.0135 
 C                     0.03478  -0.19638  -0.02371 
 C                    -1.43759  -0.05787  -0.00299 
 C                     0.88911   0.93067   0.20099 
 C                     0.62108  -1.40263  -0.28403 
 C                     2.25573   0.82213   0.16577 
 C                     2.88561  -0.47573  -0.09821 
 C                    -2.07304   1.09071  -0.4938 
 C                    -2.27088  -1.06417   0.50464 
 C                    -3.46196   1.17197  -0.46253 
 C                    -3.65071  -0.8871    0.48459 
 H                     0.43887   1.89184   0.42522 
 H                     0.06907  -2.30469  -0.50548 
 H                     2.42029  -2.4019   -0.50942 
 H                    -1.49856   1.90439  -0.92037 
 H                    -1.85241  -1.96497   0.93822 
 H                    -3.96227   2.0567   -0.84673 
 H                    -4.30301  -1.66159   0.87876 
 H                     2.84737   2.68192   0.82183 
 H                     4.10611   1.56613   0.47728 
 

 GradGradGradGradGradGradGradGradGradGradGradGradGradGradGradGradGradGrad
 Berny optimization.
 Initialization pass.
                           ----------------------------
                           !    Initial Parameters    !
                           ! (Angstroms and Degrees)  !
 --------------------------                            --------------------------
 ! Name  Definition              Value          Derivative Info.                !
 --------------------------------------------------------------------------------
 ! R1    R(1,10)                 1.2301         estimate D2E/DX2                !
 ! R2    R(2,8)                  1.3723         estimate D2E/DX2                !
 ! R3    R(2,10)                 1.3841         estimate D2E/DX2                !
 ! R4    R(2,17)                 1.0118         estimate D2E/DX2                !
 ! R5    R(3,9)                  1.3734         estimate D2E/DX2                !
 ! R6    R(3,22)                 1.0068         estimate D2E/DX2                !
 ! R7    R(3,23)                 1.011          estimate D2E/DX2                !
 ! R8    R(4,13)                 1.3366         estimate D2E/DX2                !
 ! R9    R(4,14)                 1.3369         estimate D2E/DX2                !
 ! R10   R(5,6)                  1.479          estimate D2E/DX2                !
 ! R11   R(5,7)                  1.432          estimate D2E/DX2                !
 ! R12   R(5,8)                  1.3662         estimate D2E/DX2                !
 ! R13   R(6,11)                 1.4014         estimate D2E/DX2                !
 ! R14   R(6,12)                 1.4017         estimate D2E/DX2                !
 ! R15   R(7,9)                  1.3714         estimate D2E/DX2                !
 ! R16   R(7,15)                 1.0848         estimate D2E/DX2                !
 ! R17   R(8,16)                 1.0805         estimate D2E/DX2                !
 ! R18   R(9,10)                 1.4666         estimate D2E/DX2                !
 ! R19   R(11,13)                1.3916         estimate D2E/DX2                !
 ! R20   R(11,18)                1.0835         estimate D2E/DX2                !
 ! R21   R(12,14)                1.3913         estimate D2E/DX2                !
 ! R22   R(12,19)                1.0838         estimate D2E/DX2                !
 ! R23   R(13,20)                1.0866         estimate D2E/DX2                !
 ! R24   R(14,21)                1.0866         estimate D2E/DX2                !
 ! A1    A(8,2,10)             125.8194         estimate D2E/DX2                !
 ! A2    A(8,2,17)             119.7927         estimate D2E/DX2                !
 ! A3    A(10,2,17)            114.3879         estimate D2E/DX2                !
 ! A4    A(9,3,22)             118.9664         estimate D2E/DX2                !
 ! A5    A(9,3,23)             114.825          estimate D2E/DX2                !
 ! A6    A(22,3,23)            116.6214         estimate D2E/DX2                !
 ! A7    A(13,4,14)            116.5698         estimate D2E/DX2                !
 ! A8    A(6,5,7)              121.1989         estimate D2E/DX2                !
 ! A9    A(6,5,8)              120.8351         estimate D2E/DX2                !
 ! A10   A(7,5,8)              117.9544         estimate D2E/DX2                !
 ! A11   A(5,6,11)             121.5511         estimate D2E/DX2                !
 ! A12   A(5,6,12)             121.9827         estimate D2E/DX2                !
 ! A13   A(11,6,12)            116.4662         estimate D2E/DX2                !
 ! A14   A(5,7,9)              121.8845         estimate D2E/DX2                !
 ! A15   A(5,7,15)             118.8267         estimate D2E/DX2                !
 ! A16   A(9,7,15)             119.2767         estimate D2E/DX2                !
 ! A17   A(2,8,5)              119.9725         estimate D2E/DX2                !
 ! A18   A(2,8,16)             116.156          estimate D2E/DX2                !
 ! A19   A(5,8,16)             123.843          estimate D2E/DX2                !
 ! A20   A(3,9,7)              125.7477         estimate D2E/DX2                !
 ! A21   A(3,9,10)             114.0642         estimate D2E/DX2                !
 ! A22   A(7,9,10)             120.1762         estimate D2E/DX2                !
 ! A23   A(1,10,2)             122.0366         estimate D2E/DX2                !
 ! A24   A(1,10,9)             123.7741         estimate D2E/DX2                !
 ! A25   A(2,10,9)             114.1863         estimate D2E/DX2                !
 ! A26   A(6,11,13)            119.5083         estimate D2E/DX2                !
 ! A27   A(6,11,18)            120.8593         estimate D2E/DX2                !
 ! A28   A(13,11,18)           119.6133         estimate D2E/DX2                !
 ! A29   A(6,12,14)            119.5384         estimate D2E/DX2                !
 ! A30   A(6,12,19)            120.801          estimate D2E/DX2                !
 ! A31   A(14,12,19)           119.6368         estimate D2E/DX2                !
 ! A32   A(4,13,11)            123.9717         estimate D2E/DX2                !
 ! A33   A(4,13,20)            116.0835         estimate D2E/DX2                !
 ! A34   A(11,13,20)           119.9436         estimate D2E/DX2                !
 ! A35   A(4,14,12)            123.9421         estimate D2E/DX2                !
 ! A36   A(4,14,21)            116.092          estimate D2E/DX2                !
 ! A37   A(12,14,21)           119.9619         estimate D2E/DX2                !
 ! D1    D(10,2,8,5)             0.0491         estimate D2E/DX2                !
 ! D2    D(10,2,8,16)          178.1818         estimate D2E/DX2                !
 ! D3    D(17,2,8,5)          -179.848          estimate D2E/DX2                !
 ! D4    D(17,2,8,16)           -1.7154         estimate D2E/DX2                !
 ! D5    D(8,2,10,1)           178.6612         estimate D2E/DX2                !
 ! D6    D(8,2,10,9)            -0.7218         estimate D2E/DX2                !
 ! D7    D(17,2,10,1)           -1.4368         estimate D2E/DX2                !
 ! D8    D(17,2,10,9)          179.1803         estimate D2E/DX2                !
 ! D9    D(22,3,9,7)            22.2459         estimate D2E/DX2                !
 ! D10   D(22,3,9,10)         -159.0175         estimate D2E/DX2                !
 ! D11   D(23,3,9,7)           167.3679         estimate D2E/DX2                !
 ! D12   D(23,3,9,10)          -13.8955         estimate D2E/DX2                !
 ! D13   D(14,4,13,11)           0.1895         estimate D2E/DX2                !
 ! D14   D(14,4,13,20)         179.7816         estimate D2E/DX2                !
 ! D15   D(13,4,14,12)           0.1374         estimate D2E/DX2                !
 ! D16   D(13,4,14,21)         179.4073         estimate D2E/DX2                !
 ! D17   D(7,5,6,11)            35.8769         estimate D2E/DX2                !
 ! D18   D(7,5,6,12)          -144.2087         estimate D2E/DX2                !
 ! D19   D(8,5,6,11)          -142.8576         estimate D2E/DX2                !
 ! D20   D(8,5,6,12)            37.0568         estimate D2E/DX2                !
 ! D21   D(6,5,7,9)           -179.0382         estimate D2E/DX2                !
 ! D22   D(6,5,7,15)             2.2344         estimate D2E/DX2                !
 ! D23   D(8,5,7,9)             -0.2683         estimate D2E/DX2                !
 ! D24   D(8,5,7,15)          -178.9958         estimate D2E/DX2                !
 ! D25   D(6,5,8,2)            179.2481         estimate D2E/DX2                !
 ! D26   D(6,5,8,16)             1.2663         estimate D2E/DX2                !
 ! D27   D(7,5,8,2)              0.4735         estimate D2E/DX2                !
 ! D28   D(7,5,8,16)          -177.5083         estimate D2E/DX2                !
 ! D29   D(5,6,11,13)          179.53           estimate D2E/DX2                !
 ! D30   D(5,6,11,18)            1.13           estimate D2E/DX2                !
 ! D31   D(12,6,11,13)          -0.3889         estimate D2E/DX2                !
 ! D32   D(12,6,11,18)        -178.7889         estimate D2E/DX2                !
 ! D33   D(5,6,12,14)         -179.232          estimate D2E/DX2                !
 ! D34   D(5,6,12,19)            2.5515         estimate D2E/DX2                !
 ! D35   D(11,6,12,14)           0.6865         estimate D2E/DX2                !
 ! D36   D(11,6,12,19)        -177.53           estimate D2E/DX2                !
 ! D37   D(5,7,9,3)            178.2273         estimate D2E/DX2                !
 ! D38   D(5,7,9,10)            -0.4383         estimate D2E/DX2                !
 ! D39   D(15,7,9,3)            -3.0509         estimate D2E/DX2                !
 ! D40   D(15,7,9,10)          178.2835         estimate D2E/DX2                !
 ! D41   D(3,9,10,1)             2.7038         estimate D2E/DX2                !
 ! D42   D(3,9,10,2)          -177.9255         estimate D2E/DX2                !
 ! D43   D(7,9,10,1)          -178.4822         estimate D2E/DX2                !
 ! D44   D(7,9,10,2)             0.8885         estimate D2E/DX2                !
 ! D45   D(6,11,13,4)           -0.0532         estimate D2E/DX2                !
 ! D46   D(6,11,13,20)        -179.6304         estimate D2E/DX2                !
 ! D47   D(18,11,13,4)         178.3669         estimate D2E/DX2                !
 ! D48   D(18,11,13,20)         -1.2103         estimate D2E/DX2                !
 ! D49   D(6,12,14,4)           -0.5924         estimate D2E/DX2                !
 ! D50   D(6,12,14,21)        -179.8355         estimate D2E/DX2                !
 ! D51   D(19,12,14,4)         177.6451         estimate D2E/DX2                !
 ! D52   D(19,12,14,21)         -1.5981         estimate D2E/DX2                !
 --------------------------------------------------------------------------------
 Trust Radius=3.00D-01 FncErr=1.00D-07 GrdErr=1.00D-06 EigMax=2.50D+02 EigMin=1.00D-04
 Number of steps in this run=    123 maximum allowed number of steps=    138.
 GradGradGradGradGradGradGradGradGradGradGradGradGradGradGradGradGradGrad

                          Input orientation:                          
 ---------------------------------------------------------------------
 Center     Atomic      Atomic             Coordinates (Angstroms)
 Number     Number       Type             X           Y           Z
 ---------------------------------------------------------------------
      1          8           0        4.102622   -0.653792   -0.118123
      2          7           0        1.988976   -1.507747   -0.314091
      3          7           0        3.147146    1.853144    0.335076
      4          7           0       -4.256005    0.207885    0.013497
      5          6           0        0.034782   -0.196384   -0.023709
      6          6           0       -1.437587   -0.057870   -0.002991
      7          6           0        0.889107    0.930665    0.200988
      8          6           0        0.621079   -1.402626   -0.284034
      9          6           0        2.255731    0.822127    0.165766
     10          6           0        2.885608   -0.475728   -0.098208
     11          6           0       -2.073044    1.090705   -0.493796
     12          6           0       -2.270884   -1.064173    0.504643
     13          6           0       -3.461959    1.171974   -0.462527
     14          6           0       -3.650705   -0.887101    0.484587
     15          1           0        0.438867    1.891837    0.425219
     16          1           0        0.069072   -2.304690   -0.505483
     17          1           0        2.420285   -2.401895   -0.509424
     18          1           0       -1.498559    1.904385   -0.920369
     19          1           0       -1.852414   -1.964972    0.938217
     20          1           0       -3.962271    2.056699   -0.846731
     21          1           0       -4.303008   -1.661591    0.878764
     22          1           0        2.847369    2.681923    0.821825
     23          1           0        4.106106    1.566131    0.477284
 ---------------------------------------------------------------------
                    Distance matrix (angstroms):
                    1          2          3          4          5
     1  O    0.000000
     2  N    2.288043   0.000000
     3  N    2.720855   3.613636   0.000000
     4  N    8.403955   6.484635   7.590582   0.000000
     5  C    4.094564   2.371259   3.743808   4.309950   0.000000
     6  C    5.573356   3.733666   4.978558   2.830968   1.479015
     7  C    3.597084   2.724128   2.442885   5.199013   1.431991
     8  C    3.565027   1.372259   4.167055   5.144727   1.366211
     9  C    2.381163   2.393686   1.373420   6.542414   2.450690
    10  C    1.230133   1.384058   2.383229   7.175127   2.865448
    11  C    6.428316   4.825376   5.340293   2.408742   2.514063
    12  C    6.416995   4.360446   6.155854   2.408332   2.519585
    13  C    7.789411   6.075823   6.691818   1.336628   3.780498
    14  C    7.780217   5.729668   7.330899   1.336902   3.783949
    15  H    4.494280   3.808752   2.710055   5.004701   2.173819
    16  H    4.375504   2.087530   5.241055   5.028784   2.162923
    17  H    2.457486   1.011772   4.398507   7.187298   3.284939
    18  H    6.209758   4.916617   4.812623   3.369529   2.751066
    19  H    6.188497   4.066154   6.319604   3.369520   2.759477
    20  H    8.539328   6.957465   7.209848   2.060191   4.661564
    21  H    8.524322   6.405906   8.255529   2.060543   4.666660
    22  H    3.685940   4.424983   1.006810   7.565195   4.112204
    23  H    2.298386   3.815395   1.011041   8.484387   4.464654
                    6          7          8          9         10
     6  C    0.000000
     7  C    2.536201   0.000000
     8  C    2.474967   2.398194   0.000000
     9  C    3.800457   1.371380   2.797129   0.000000
    10  C    4.344386   2.460381   2.453928   1.466579   0.000000
    11  C    1.401399   3.046748   3.676819   4.386964   5.215212
    12  C    1.401685   3.749284   3.016623   4.915609   5.224855
    13  C    2.412835   4.407977   4.830282   5.762736   6.568048
    14  C    2.413141   4.898428   4.370890   6.157036   6.575125
    15  H    2.739672   1.084826   3.374867   2.124286   3.444689
    16  H    2.751494   3.411610   1.080496   3.874150   3.382876
    17  H    4.542478   3.735659   2.070382   3.298072   2.023794
    18  H    2.166967   2.811854   3.979210   4.055326   5.055869
    19  H    2.166793   4.055140   2.815723   5.024088   5.073547
    20  H    3.399607   5.089355   5.769805   6.419725   7.339409
    21  H    3.400007   5.842707   5.066142   7.049417   7.350983
    22  H    5.152440   2.699469   4.781509   2.058954   3.289177
    23  H    5.796600   3.290781   4.640963   2.018532   2.447447
                   11         12         13         14         15
    11  C    0.000000
    12  C    2.383174   0.000000
    13  C    1.391642   2.711905   0.000000
    14  C    2.712557   1.391281   2.274300   0.000000
    15  H    2.792149   4.010867   4.064817   4.944757   0.000000
    16  H    4.014661   2.834542   4.955524   4.102016   4.314371
    17  H    5.691090   4.982459   6.882989   6.335580   4.820343
    18  H    1.083546   3.382230   2.144991   3.794473   2.358895
    19  H    3.381790   1.083763   3.793830   2.145096   4.515320
    20  H    2.151020   3.798269   1.086583   3.245834   4.584218
    21  H    3.798920   2.150907   3.245846   1.086605   5.942889
    22  H    5.336038   6.350618   6.613405   7.421363   2.565622
    23  H    6.273031   6.898206   7.636374   8.135510   3.682043
                   16         17         18         19         20
    16  H    0.000000
    17  H    2.353225   0.000000
    18  H    4.510644   5.836974   0.000000
    19  H    2.427300   4.532386   4.307143   0.000000
    20  H    5.948940   7.792936   2.469514   4.879690   0.000000
    21  H    4.630853   6.904910   4.880369   2.470017   4.113285
    22  H    5.860631   5.272554   4.746251   6.610230   7.038905
    23  H    5.678620   4.422761   5.786201   6.941549   8.190994
                   21         22         23
    21  H    0.000000
    22  H    8.366436   0.000000
    23  H    9.016239   1.717009   0.000000
 Stoichiometry    C10H9N3O
 Framework group  C1[X(C10H9N3O)]
 Deg. of freedom    63
 Full point group                 C1      NOp   1
 Largest Abelian subgroup         C1      NOp   1
 Largest concise Abelian subgroup C1      NOp   1
                         Standard orientation:                         
 ---------------------------------------------------------------------
 Center     Atomic      Atomic             Coordinates (Angstroms)
 Number     Number       Type             X           Y           Z
 ---------------------------------------------------------------------
      1          8           0        4.102622   -0.653792   -0.118123
      2          7           0        1.988976   -1.507747   -0.314091
      3          7           0        3.147146    1.853144    0.335076
      4          7           0       -4.256005    0.207885    0.013497
      5          6           0        0.034782   -0.196384   -0.023709
      6          6           0       -1.437587   -0.057870   -0.002991
      7          6           0        0.889107    0.930665    0.200988
      8          6           0        0.621079   -1.402626   -0.284034
      9          6           0        2.255731    0.822127    0.165766
     10          6           0        2.885608   -0.475728   -0.098208
     11          6           0       -2.073044    1.090705   -0.493796
     12          6           0       -2.270884   -1.064173    0.504643
     13          6           0       -3.461959    1.171974   -0.462527
     14          6           0       -3.650705   -0.887101    0.484587
     15          1           0        0.438867    1.891837    0.425219
     16          1           0        0.069072   -2.304690   -0.505483
     17          1           0        2.420285   -2.401895   -0.509424
     18          1           0       -1.498559    1.904385   -0.920369
     19          1           0       -1.852414   -1.964972    0.938217
     20          1           0       -3.962271    2.056699   -0.846731
     21          1           0       -4.303008   -1.661591    0.878764
     22          1           0        2.847369    2.681923    0.821825
     23          1           0        4.106106    1.566131    0.477284
 ---------------------------------------------------------------------
 Rotational constants (GHZ):           2.0477926           0.3541824           0.3098413
 Standard basis: 6-311++G(d,p) (5D, 7F)
 There are   385 symmetry adapted cartesian basis functions of A   symmetry.
 There are   371 symmetry adapted basis functions of A   symmetry.
   371 basis functions,   585 primitive gaussians,   385 cartesian basis functions
    49 alpha electrons       49 beta electrons
       nuclear repulsion energy       806.0489669005 Hartrees.
 NAtoms=   23 NActive=   23 NUniq=   23 SFac= 1.00D+00 NAtFMM=   60 NAOKFM=F Big=F
 Integral buffers will be    131072 words long.
 Raffenetti 2 integral format.
 Two-electron integral symmetry is turned on.
 ------------------------------------------------------------------------------
 Polarizable Continuum Model (PCM)
 =================================
 Model                : PCM.
 Atomic radii         : UFF (Universal Force Field).
 Polarization charges : Total charges.
 Charge compensation  : None.
 Solution method      : On-the-fly selection.
 Cavity type          : Scaled VdW (van der Waals Surface) (Alpha=1.100).
 Cavity algorithm     : GePol (No added spheres)
                        Default sphere list used, NSphG=   23.
                        Lebedev-Laikov grids with approx.  5.0 points / Ang**2.
                        Smoothing algorithm: York/Karplus (Gamma=1.0000).
                        Polarization charges: spherical gaussians, with
                                              point-specific exponents (IZeta= 3).
                        Self-potential: point-specific (ISelfS= 7).
                        Self-field    : sphere-specific E.n sum rule (ISelfD= 2).
 1st derivatives      : Analytical E(r).r(x)/FMM algorithm (CHGder, D1EAlg=3).
                        Cavity 1st derivative terms included.
 Solvent              : Water, Eps=  78.355300 Eps(inf)=   1.777849
 ------------------------------------------------------------------------------
 One-electron integrals computed using PRISM.
 NBasis=   371 RedAO= T EigKep=  1.40D-06  NBF=   371
 NBsUse=   370 1.00D-06 EigRej=  5.67D-07 NBFU=   370
 ExpMin= 3.60D-02 ExpMax= 8.59D+03 ExpMxC= 1.30D+03 IAcc=3 IRadAn=         5 AccDes= 0.00D+00
 Harris functional with IExCor=  402 and IRadAn=       5 diagonalized for initial guess.
 HarFok:  IExCor=  402 AccDes= 0.00D+00 IRadAn=         5 IDoV= 1 UseB2=F ITyADJ=14
 ICtDFT=  3500011 ScaDFX=  1.000000  1.000000  1.000000  1.000000
 FoFCou: FMM=F IPFlag=           0 FMFlag=      100000 FMFlg1=           0
         NFxFlg=           0 DoJE=T BraDBF=F KetDBF=T FulRan=T
         wScrn=  0.000000 ICntrl=       500 IOpCl=  0 I1Cent=   200000004 NGrid=           0
         NMat0=    1 NMatS0=      1 NMatT0=    0 NMatD0=    1 NMtDS0=    0 NMtDT0=    0
 Petite list used in FoFCou.
 Requested convergence on RMS density matrix=1.00D-08 within 128 cycles.
 Requested convergence on MAX density matrix=1.00D-06.
 Requested convergence on             energy=1.00D-06.
 No special actions if energy rises.
 Inv3:  Mode=1 IEnd=    10875648.
 Iteration    1 A*A^-1 deviation from unit magnitude is 5.11D-15 for   1872.
 Iteration    1 A*A^-1 deviation from orthogonality  is 4.30D-15 for   1872   1738.
 Iteration    1 A^-1*A deviation from unit magnitude is 4.55D-15 for   1893.
 Iteration    1 A^-1*A deviation from orthogonality  is 2.37D-15 for   1458   1436.
 Error on total polarization charges =  0.01775
 SCF Done:  E(RB3LYP) =  -626.166291915     A.U. after   15 cycles
            NFock= 15  Conv=0.51D-08     -V/T= 2.0041

 **********************************************************************

            Population analysis using the SCF Density.

 **********************************************************************

 Orbital symmetries:
       Occupied  (A) (A) (A) (A) (A) (A) (A) (A) (A) (A) (A) (A)
                 (A) (A) (A) (A) (A) (A) (A) (A) (A) (A) (A) (A)
                 (A) (A) (A) (A) (A) (A) (A) (A) (A) (A) (A) (A)
                 (A) (A) (A) (A) (A) (A) (A) (A) (A) (A) (A) (A)
                 (A)
       Virtual   (A) (A) (A) (A) (A) (A) (A) (A) (A) (A) (A) (A)
                 (A) (A) (A) (A) (A) (A) (A) (A) (A) (A) (A) (A)
                 (A) (A) (A) (A) (A) (A) (A) (A) (A) (A) (A) (A)
                 (A) (A) (A) (A) (A) (A) (A) (A) (A) (A) (A) (A)
                 (A) (A) (A) (A) (A) (A) (A) (A) (A) (A) (A) (A)
                 (A) (A) (A) (A) (A) (A) (A) (A) (A) (A) (A) (A)
                 (A) (A) (A) (A) (A) (A) (A) (A) (A) (A) (A) (A)
                 (A) (A) (A) (A) (A) (A) (A) (A) (A) (A) (A) (A)
                 (A) (A) (A) (A) (A) (A) (A) (A) (A) (A) (A) (A)
                 (A) (A) (A) (A) (A) (A) (A) (A) (A) (A) (A) (A)
                 (A) (A) (A) (A) (A) (A) (A) (A) (A) (A) (A) (A)
                 (A) (A) (A) (A) (A) (A) (A) (A) (A) (A) (A) (A)
                 (A) (A) (A) (A) (A) (A) (A) (A) (A) (A) (A) (A)
                 (A) (A) (A) (A) (A) (A) (A) (A) (A) (A) (A) (A)
                 (A) (A) (A) (A) (A) (A) (A) (A) (A) (A) (A) (A)
                 (A) (A) (A) (A) (A) (A) (A) (A) (A) (A) (A) (A)
                 (A) (A) (A) (A) (A) (A) (A) (A) (A) (A) (A) (A)
                 (A) (A) (A) (A) (A) (A) (A) (A) (A) (A) (A) (A)
                 (A) (A) (A) (A) (A) (A) (A) (A) (A) (A) (A) (A)
                 (A) (A) (A) (A) (A) (A) (A) (A) (A) (A) (A) (A)
                 (A) (A) (A) (A) (A) (A) (A) (A) (A) (A) (A) (A)
                 (A) (A) (A) (A) (A) (A) (A) (A) (A) (A) (A) (A)
                 (A) (A) (A) (A) (A) (A) (A) (A) (A) (A) (A) (A)
                 (A) (A) (A) (A) (A) (A) (A) (A) (A) (A) (A) (A)
                 (A) (A) (A) (A) (A) (A) (A) (A) (A) (A) (A) (A)
                 (A) (A) (A) (A) (A) (A) (A) (A) (A) (A) (A) (A)
                 (A) (A) (A) (A) (A) (A) (A) (A) (A)
 The electronic state is 1-A.
 Alpha  occ. eigenvalues --  -19.10391 -14.38299 -14.32944 -14.32118 -10.28795
 Alpha  occ. eigenvalues --  -10.23250 -10.22935 -10.21592 -10.21583 -10.21503
 Alpha  occ. eigenvalues --  -10.20147 -10.19079 -10.19010 -10.18991  -1.06013
 Alpha  occ. eigenvalues --   -0.97138  -0.95644  -0.93058  -0.85167  -0.79568
 Alpha  occ. eigenvalues --   -0.77329  -0.75556  -0.67297  -0.66342  -0.64092
 Alpha  occ. eigenvalues --   -0.61976  -0.57262  -0.55651  -0.52063  -0.50531
 Alpha  occ. eigenvalues --   -0.49637  -0.48595  -0.47713  -0.47140  -0.45937
 Alpha  occ. eigenvalues --   -0.43783  -0.43656  -0.41510  -0.40628  -0.39763
 Alpha  occ. eigenvalues --   -0.37418  -0.36492  -0.35982  -0.31331  -0.28594
 Alpha  occ. eigenvalues --   -0.27719  -0.27582  -0.26711  -0.20871
 Alpha virt. eigenvalues --   -0.05633  -0.04605  -0.03085  -0.00815   0.00232
 Alpha virt. eigenvalues --    0.00424   0.01043   0.01726   0.02387   0.03226
 Alpha virt. eigenvalues --    0.03731   0.04086   0.04416   0.05483   0.06044
 Alpha virt. eigenvalues --    0.06804   0.07002   0.07730   0.08273   0.09326
 Alpha virt. eigenvalues --    0.09928   0.10058   0.10214   0.10452   0.10933
 Alpha virt. eigenvalues --    0.11306   0.11542   0.12054   0.12276   0.12542
 Alpha virt. eigenvalues --    0.13441   0.13926   0.14162   0.14249   0.14518
 Alpha virt. eigenvalues --    0.15003   0.15488   0.15819   0.16071   0.16168
 Alpha virt. eigenvalues --    0.16439   0.16901   0.17511   0.18098   0.18755
 Alpha virt. eigenvalues --    0.19226   0.19596   0.19978   0.20455   0.21148
 Alpha virt. eigenvalues --    0.21897   0.22392   0.22554   0.22920   0.23347
 Alpha virt. eigenvalues --    0.23694   0.24232   0.24571   0.25067   0.25261
 Alpha virt. eigenvalues --    0.25594   0.25815   0.26548   0.26862   0.27169
 Alpha virt. eigenvalues --    0.27521   0.28285   0.28732   0.29030   0.29653
 Alpha virt. eigenvalues --    0.29885   0.30441   0.30805   0.30953   0.31498
 Alpha virt. eigenvalues --    0.31926   0.32812   0.33318   0.33634   0.34145
 Alpha virt. eigenvalues --    0.34614   0.35786   0.36348   0.36844   0.37288
 Alpha virt. eigenvalues --    0.38495   0.41182   0.42949   0.43128   0.44439
 Alpha virt. eigenvalues --    0.49667   0.50668   0.53638   0.53932   0.54818
 Alpha virt. eigenvalues --    0.55973   0.56994   0.57825   0.58331   0.58704
 Alpha virt. eigenvalues --    0.59143   0.59646   0.60138   0.61143   0.61680
 Alpha virt. eigenvalues --    0.63471   0.63772   0.64770   0.64929   0.65830
 Alpha virt. eigenvalues --    0.67324   0.67870   0.68440   0.69416   0.70223
 Alpha virt. eigenvalues --    0.71017   0.72932   0.73709   0.74388   0.75573
 Alpha virt. eigenvalues --    0.76374   0.77748   0.78138   0.78661   0.79830
 Alpha virt. eigenvalues --    0.80136   0.81679   0.83049   0.83890   0.86169
 Alpha virt. eigenvalues --    0.86337   0.87502   0.87665   0.88373   0.89040
 Alpha virt. eigenvalues --    0.89724   0.89971   0.90674   0.91375   0.92077
 Alpha virt. eigenvalues --    0.92862   0.94211   0.95516   0.96831   0.97648
 Alpha virt. eigenvalues --    1.01340   1.01806   1.04512   1.05937   1.06704
 Alpha virt. eigenvalues --    1.06972   1.07407   1.08702   1.09368   1.10456
 Alpha virt. eigenvalues --    1.12015   1.13522   1.15564   1.17299   1.18196
 Alpha virt. eigenvalues --    1.19829   1.21418   1.24964   1.26012   1.29052
 Alpha virt. eigenvalues --    1.31096   1.31890   1.38355   1.42338   1.45319
 Alpha virt. eigenvalues --    1.46246   1.49821   1.50551   1.51566   1.52764
 Alpha virt. eigenvalues --    1.54442   1.55105   1.56267   1.57025   1.58209
 Alpha virt. eigenvalues --    1.58939   1.59752   1.60920   1.62634   1.63793
 Alpha virt. eigenvalues --    1.66502   1.67626   1.70419   1.70610   1.72563
 Alpha virt. eigenvalues --    1.73229   1.74820   1.75395   1.76730   1.77242
 Alpha virt. eigenvalues --    1.79801   1.81049   1.84115   1.85701   1.85984
 Alpha virt. eigenvalues --    1.89307   1.89754   1.90658   1.92397   1.93880
 Alpha virt. eigenvalues --    1.96344   1.97077   1.97652   2.00215   2.00942
 Alpha virt. eigenvalues --    2.03264   2.04228   2.05084   2.06848   2.08431
 Alpha virt. eigenvalues --    2.09951   2.10807   2.12852   2.17066   2.23692
 Alpha virt. eigenvalues --    2.25691   2.26362   2.28680   2.33268   2.34505
 Alpha virt. eigenvalues --    2.37815   2.41056   2.44425   2.44652   2.47819
 Alpha virt. eigenvalues --    2.48132   2.48629   2.51284   2.52770   2.56685
 Alpha virt. eigenvalues --    2.58472   2.60011   2.60754   2.66679   2.69815
 Alpha virt. eigenvalues --    2.70578   2.71064   2.74052   2.74789   2.74851
 Alpha virt. eigenvalues --    2.75866   2.77183   2.77718   2.79119   2.80149
 Alpha virt. eigenvalues --    2.82989   2.83714   2.84500   2.85388   2.87264
 Alpha virt. eigenvalues --    2.89144   2.91022   2.91376   2.92579   2.93048
 Alpha virt. eigenvalues --    2.95833   2.96595   2.97443   2.98963   3.00347
 Alpha virt. eigenvalues --    3.02455   3.03344   3.05350   3.08927   3.14266
 Alpha virt. eigenvalues --    3.20835   3.23957   3.26135   3.34531   3.34907
 Alpha virt. eigenvalues --    3.36511   3.41819   3.42971   3.45854   3.52188
 Alpha virt. eigenvalues --    3.55104   3.58333   3.63319   3.63680   3.70434
 Alpha virt. eigenvalues --    3.74045   3.77597   3.81778   3.86798   3.92113
 Alpha virt. eigenvalues --    3.94893   4.00195   4.01976   4.08683   4.12682
 Alpha virt. eigenvalues --    4.33322   4.40061   4.41863   4.55769   4.78175
 Alpha virt. eigenvalues --    4.79736   5.01290   5.05864   5.16007   5.22148
 Alpha virt. eigenvalues --    5.26576   5.78816  23.63816  23.76848  23.85624
 Alpha virt. eigenvalues --   23.88235  23.91667  23.98569  24.08421  24.10101
 Alpha virt. eigenvalues --   24.12562  24.13682  35.61154  35.64910  35.66001
 Alpha virt. eigenvalues --   50.03969
          Condensed to atoms (all electrons):
               1          2          3          4          5          6
     1  O    8.311402  -0.114257  -0.002324   0.000002   0.028614   0.017581
     2  N   -0.114257   6.887411   0.004832  -0.000202  -0.143623  -0.068388
     3  N   -0.002324   0.004832   6.636690  -0.000032  -0.001900  -0.040397
     4  N    0.000002  -0.000202  -0.000032   6.874009   0.013947   0.089739
     5  C    0.028614  -0.143623  -0.001900   0.013947  13.278421  -2.380407
     6  C    0.017581  -0.068388  -0.040397   0.089739  -2.380407  13.861672
     7  C   -0.193984   0.270413   0.135512   0.008033  -2.213298  -4.004812
     8  C    0.048584   0.148982   0.017328   0.003230  -4.219083   1.756693
     9  C   -0.145744  -0.481184   0.101354  -0.001460   1.755027   1.972244
    10  C    0.499320   0.357503  -0.186053   0.000846  -0.300976  -0.225084
    11  C   -0.000678  -0.014171   0.045212   0.074736   0.291655  -1.880600
    12  C   -0.000994   0.009375  -0.033686   0.100569   0.235163  -3.310603
    13  C    0.000049  -0.001407  -0.000833   0.085459  -0.027861   0.078471
    14  C    0.000134   0.005458   0.002361   0.093143  -0.128326   0.539501
    15  H   -0.001080   0.004949  -0.014487   0.000528  -0.075696  -0.085764
    16  H   -0.001483  -0.048593   0.001445   0.000439  -0.061629  -0.061363
    17  H    0.001603   0.379056  -0.002225   0.000016  -0.043444   0.005755
    18  H    0.000013  -0.000520   0.000321   0.003432   0.013893  -0.082369
    19  H   -0.000138  -0.000625  -0.000749   0.004618   0.020592  -0.105040
    20  H    0.000001   0.000005  -0.000090  -0.103187  -0.009704   0.012088
    21  H    0.000004  -0.000061   0.000025  -0.102988  -0.021615   0.025315
    22  H    0.001675  -0.000305   0.380816  -0.000003   0.017743   0.009287
    23  H    0.019200   0.002565   0.355789  -0.000011  -0.017778  -0.004480
               7          8          9         10         11         12
     1  O   -0.193984   0.048584  -0.145744   0.499320  -0.000678  -0.000994
     2  N    0.270413   0.148982  -0.481184   0.357503  -0.014171   0.009375
     3  N    0.135512   0.017328   0.101354  -0.186053   0.045212  -0.033686
     4  N    0.008033   0.003230  -0.001460   0.000846   0.074736   0.100569
     5  C   -2.213298  -4.219083   1.755027  -0.300976   0.291655   0.235163
     6  C   -4.004812   1.756693   1.972244  -0.225084  -1.880600  -3.310603
     7  C   28.810704  -7.929423  -9.230296  -1.316865  -1.221890   1.339670
     8  C   -7.929423  15.933789   0.122196   0.095884   1.477370  -1.724344
     9  C   -9.230296   0.122196  14.118846  -1.117467  -0.270499   0.154867
    10  C   -1.316865   0.095884  -1.117467   8.454553  -0.096722   0.046482
    11  C   -1.221890   1.477370  -0.270499  -0.096722  16.903984  -9.157740
    12  C    1.339670  -1.724344   0.154867   0.046482  -9.157740  20.203350
    13  C    0.015843  -0.124471   0.095568  -0.001823  -1.980436   0.736788
    14  C   -0.271984   0.363209  -0.046599  -0.028011   1.227027  -3.280059
    15  H    0.853012  -0.050853  -0.296399  -0.020725  -0.066635   0.040727
    16  H    0.089512   0.459879  -0.066174   0.029370   0.045994  -0.097669
    17  H   -0.066511   0.073175  -0.021726  -0.026583  -0.001255   0.004710
    18  H   -0.101949   0.058438   0.000344  -0.009636   0.557862  -0.111975
    19  H    0.031933  -0.087927   0.016774  -0.001619  -0.090810   0.572903
    20  H    0.000864  -0.001853   0.003850   0.000309  -0.119721   0.007400
    21  H   -0.012909   0.018762   0.000295  -0.000561  -0.004504  -0.131945
    22  H   -0.129863  -0.010194   0.022728   0.062448  -0.003056   0.002295
    23  H    0.072147   0.019286  -0.080278  -0.026435   0.001741  -0.001249
              13         14         15         16         17         18
     1  O    0.000049   0.000134  -0.001080  -0.001483   0.001603   0.000013
     2  N   -0.001407   0.005458   0.004949  -0.048593   0.379056  -0.000520
     3  N   -0.000833   0.002361  -0.014487   0.001445  -0.002225   0.000321
     4  N    0.085459   0.093143   0.000528   0.000439   0.000016   0.003432
     5  C   -0.027861  -0.128326  -0.075696  -0.061629  -0.043444   0.013893
     6  C    0.078471   0.539501  -0.085764  -0.061363   0.005755  -0.082369
     7  C    0.015843  -0.271984   0.853012   0.089512  -0.066511  -0.101949
     8  C   -0.124471   0.363209  -0.050853   0.459879   0.073175   0.058438
     9  C    0.095568  -0.046599  -0.296399  -0.066174  -0.021726   0.000344
    10  C   -0.001823  -0.028011  -0.020725   0.029370  -0.026583  -0.009636
    11  C   -1.980436   1.227027  -0.066635   0.045994  -0.001255   0.557862
    12  C    0.736788  -3.280059   0.040727  -0.097669   0.004710  -0.111975
    13  C    7.225156   0.147475  -0.003105  -0.002734  -0.000084  -0.047911
    14  C    0.147475   7.522115  -0.003385   0.014948   0.001145   0.022664
    15  H   -0.003105  -0.003385   0.518919   0.003454  -0.000226  -0.005344
    16  H   -0.002734   0.014948   0.003454   0.480665  -0.003422  -0.001386
    17  H   -0.000084   0.001145  -0.000226  -0.003422   0.338550   0.000276
    18  H   -0.047911   0.022664  -0.005344  -0.001386   0.000276   0.494385
    19  H    0.003079  -0.055324  -0.001179  -0.005835  -0.000289  -0.000534
    20  H    0.471774   0.031458  -0.000658  -0.000089   0.000006  -0.004004
    21  H    0.039702   0.481512  -0.000330  -0.000206   0.000056   0.001317
    22  H    0.000856  -0.000439  -0.004077  -0.000300   0.000260  -0.000448
    23  H    0.000209   0.000152   0.002860   0.000593   0.000418   0.000107
              19         20         21         22         23
     1  O   -0.000138   0.000001   0.000004   0.001675   0.019200
     2  N   -0.000625   0.000005  -0.000061  -0.000305   0.002565
     3  N   -0.000749  -0.000090   0.000025   0.380816   0.355789
     4  N    0.004618  -0.103187  -0.102988  -0.000003  -0.000011
     5  C    0.020592  -0.009704  -0.021615   0.017743  -0.017778
     6  C   -0.105040   0.012088   0.025315   0.009287  -0.004480
     7  C    0.031933   0.000864  -0.012909  -0.129863   0.072147
     8  C   -0.087927  -0.001853   0.018762  -0.010194   0.019286
     9  C    0.016774   0.003850   0.000295   0.022728  -0.080278
    10  C   -0.001619   0.000309  -0.000561   0.062448  -0.026435
    11  C   -0.090810  -0.119721  -0.004504  -0.003056   0.001741
    12  C    0.572903   0.007400  -0.131945   0.002295  -0.001249
    13  C    0.003079   0.471774   0.039702   0.000856   0.000209
    14  C   -0.055324   0.031458   0.481512  -0.000439   0.000152
    15  H   -0.001179  -0.000658  -0.000330  -0.004077   0.002860
    16  H   -0.005835  -0.000089  -0.000206  -0.000300   0.000593
    17  H   -0.000289   0.000006   0.000056   0.000260   0.000418
    18  H   -0.000534  -0.004004   0.001317  -0.000448   0.000107
    19  H    0.490998   0.001025  -0.004018   0.000160  -0.000079
    20  H    0.001025   0.510823   0.000618   0.000049   0.000001
    21  H   -0.004018   0.000618   0.511189  -0.000005   0.000004
    22  H    0.000160   0.000049  -0.000005   0.397926  -0.030040
    23  H   -0.000079   0.000001   0.000004  -0.030040   0.400035
 Mulliken charges:
               1
     1  O   -0.467501
     2  N   -0.197217
     3  N   -0.398911
     4  N   -0.144864
     5  C   -0.009716
     6  C   -0.119039
     7  C    1.066142
     8  C   -0.448660
     9  C   -0.606269
    10  C   -0.188157
    11  C    0.283138
    12  C    0.395964
    13  C   -0.709764
    14  C   -0.638175
    15  H    0.205495
    16  H    0.224583
    17  H    0.360738
    18  H    0.213021
    19  H    0.212084
    20  H    0.199036
    21  H    0.200344
    22  H    0.282487
    23  H    0.285242
 Sum of Mulliken charges =  -0.00000
 Mulliken charges with hydrogens summed into heavy atoms:
               1
     1  O   -0.467501
     2  N    0.163521
     3  N    0.168818
     4  N   -0.144864
     5  C   -0.009716
     6  C   -0.119039
     7  C    1.271636
     8  C   -0.224077
     9  C   -0.606269
    10  C   -0.188157
    11  C    0.496159
    12  C    0.608049
    13  C   -0.510728
    14  C   -0.437831
 Electronic spatial extent (au):  <R**2>=           3351.4155
 Charge=             -0.0000 electrons
 Dipole moment (field-independent basis, Debye):
    X=             -0.0614    Y=             -0.3070    Z=              0.8654  Tot=              0.9203
 Quadrupole moment (field-independent basis, Debye-Ang):
   XX=           -121.5028   YY=            -62.0172   ZZ=            -82.9946
   XY=              6.6976   XZ=              3.7880   YZ=              2.4259
 Traceless Quadrupole moment (field-independent basis, Debye-Ang):
   XX=            -32.6646   YY=             26.8210   ZZ=              5.8436
   XY=              6.6976   XZ=              3.7880   YZ=              2.4259
 Octapole moment (field-independent basis, Debye-Ang**2):
  XXX=             30.7027  YYY=             -7.5203  ZZZ=              0.2912  XYY=             15.6735
  XXY=             20.1989  XXZ=             18.4412  XZZ=              8.5945  YZZ=             -0.0211
  YYZ=              4.2221  XYZ=             24.6233
 Hexadecapole moment (field-independent basis, Debye-Ang**3):
 XXXX=          -4799.3181 YYYY=           -560.8648 ZZZZ=           -160.0165 XXXY=            214.5501
 XXXZ=             63.1733 YYYX=             -8.1941 YYYZ=             33.6818 ZZZX=              1.2323
 ZZZY=              4.3682 XXYY=           -618.3390 XXZZ=           -644.7623 YYZZ=           -132.1514
 XXYZ=              4.5266 YYXZ=             22.3082 ZZXY=              2.3116
 N-N= 8.060489669005D+02 E-N=-3.070392889375D+03  KE= 6.235792604274D+02
 D1PCM: PCM CHGder 1st derivatives, ID1Alg=3 FixD1E=F DoIter=F DoCFld=F I1PDM=0.
 Calling FoFJK, ICntrl=      2127 FMM=F ISym2X=0 I1Cent= 0 IOpClX= 0 NMat=1 NMatS=1 NMatT=0.
 ***** Axes restored to original set *****
 -------------------------------------------------------------------
 Center     Atomic                   Forces (Hartrees/Bohr)
 Number     Number              X              Y              Z
 -------------------------------------------------------------------
      1        8           0.012509083   -0.002183776   -0.000780059
      2        7           0.001945584    0.004210785    0.000795851
      3        7           0.000907329    0.000579216   -0.002149241
      4        7          -0.001977276    0.000224880   -0.000046188
      5        6           0.001541653    0.002431180    0.000465761
      6        6          -0.000116347   -0.000026460   -0.000087408
      7        6          -0.003061944   -0.000365030   -0.000066736
      8        6           0.002035853   -0.002358538   -0.000594996
      9        6           0.003293511   -0.003166000   -0.000189237
     10        6          -0.018827942    0.000962924    0.000307796
     11        6          -0.000074111    0.000615654   -0.000550589
     12        6          -0.000054105   -0.000719619    0.000679055
     13        6           0.001328710    0.003132383   -0.001510606
     14        6           0.000815238   -0.003241924    0.001569146
     15        1           0.000590369    0.000008451   -0.000028429
     16        1           0.000904624   -0.000326106    0.000272712
     17        1          -0.001592397   -0.001965749   -0.000369298
     18        1          -0.000533820    0.000126329    0.000284484
     19        1          -0.000488727   -0.000008974   -0.000428194
     20        1           0.000707880    0.000100571   -0.000063936
     21        1           0.000692805   -0.000221849    0.000035688
     22        1           0.000152371    0.000838657    0.000895372
     23        1          -0.000698341    0.001352993    0.001559053
 -------------------------------------------------------------------
 Cartesian Forces:  Max     0.018827942 RMS     0.003053728

 GradGradGradGradGradGradGradGradGradGradGradGradGradGradGradGradGradGrad
 Berny optimization.
 FormGI is forming the generalized inverse of G from B-inverse, IUseBI=4.
 Internal  Forces:  Max     0.012704350 RMS     0.001557451
 Search for a local minimum.
 Step number   1 out of a maximum of  123
 All quantities printed in internal units (Hartrees-Bohrs-Radians)
 Mixed Optimization -- RFO/linear search
 Second derivative matrix not updated -- first step.
 ITU=  0
     Eigenvalues ---    0.01044   0.01505   0.01644   0.01744   0.01774
     Eigenvalues ---    0.01917   0.01985   0.02038   0.02043   0.02090
     Eigenvalues ---    0.02094   0.02131   0.02143   0.02215   0.02266
     Eigenvalues ---    0.02291   0.02315   0.02346   0.02445   0.03424
     Eigenvalues ---    0.15991   0.15992   0.15994   0.15996   0.15999
     Eigenvalues ---    0.16000   0.16000   0.16000   0.16000   0.22000
     Eigenvalues ---    0.22361   0.22821   0.23479   0.23879   0.24563
     Eigenvalues ---    0.24993   0.24994   0.24998   0.25000   0.34683
     Eigenvalues ---    0.35208   0.35210   0.35291   0.35417   0.35543
     Eigenvalues ---    0.35569   0.35935   0.39304   0.42306   0.43434
     Eigenvalues ---    0.45677   0.45799   0.45849   0.46096   0.46511
     Eigenvalues ---    0.47064   0.47935   0.50325   0.50625   0.50859
     Eigenvalues ---    0.55732   0.57040   0.91031
 RFO step:  Lambda=-6.91000246D-04 EMin= 1.04353676D-02
 Linear search not attempted -- first point.
 Iteration  1 RMS(Cart)=  0.02447841 RMS(Int)=  0.00023928
 Iteration  2 RMS(Cart)=  0.00031867 RMS(Int)=  0.00002337
 Iteration  3 RMS(Cart)=  0.00000012 RMS(Int)=  0.00002337
 Variable       Old X    -DE/DX   Delta X   Delta X   Delta X     New X
                                 (Linear)    (Quad)   (Total)
    R1        2.32461   0.01270   0.00000   0.01395   0.01395   2.33856
    R2        2.59319  -0.00328   0.00000  -0.00676  -0.00676   2.58643
    R3        2.61549  -0.00319   0.00000  -0.00694  -0.00694   2.60855
    R4        1.91197   0.00113   0.00000   0.00247   0.00247   1.91444
    R5        2.59539   0.00235   0.00000   0.00466   0.00466   2.60005
    R6        1.90259   0.00108   0.00000   0.00231   0.00231   1.90490
    R7        1.91059  -0.00083   0.00000  -0.00180  -0.00180   1.90879
    R8        2.52586   0.00330   0.00000   0.00591   0.00591   2.53177
    R9        2.52638   0.00340   0.00000   0.00610   0.00610   2.53247
   R10        2.79493  -0.00030   0.00000  -0.00087  -0.00087   2.79407
   R11        2.70607  -0.00163   0.00000  -0.00360  -0.00360   2.70247
   R12        2.58176   0.00131   0.00000   0.00258   0.00257   2.58434
   R13        2.64826   0.00095   0.00000   0.00181   0.00181   2.65007
   R14        2.64880   0.00080   0.00000   0.00148   0.00148   2.65028
   R15        2.59153   0.00093   0.00000   0.00211   0.00211   2.59364
   R16        2.05002  -0.00024   0.00000  -0.00069  -0.00069   2.04934
   R17        2.04184  -0.00025   0.00000  -0.00068  -0.00068   2.04116
   R18        2.77143  -0.00107   0.00000  -0.00303  -0.00303   2.76840
   R19        2.62982  -0.00081   0.00000  -0.00170  -0.00170   2.62812
   R20        2.04761  -0.00030   0.00000  -0.00084  -0.00084   2.04677
   R21        2.62914  -0.00078   0.00000  -0.00165  -0.00165   2.62749
   R22        2.04802  -0.00035   0.00000  -0.00099  -0.00099   2.04702
   R23        2.05334  -0.00022   0.00000  -0.00063  -0.00063   2.05272
   R24        2.05339  -0.00025   0.00000  -0.00070  -0.00070   2.05269
    A1        2.19596   0.00018   0.00000  -0.00044  -0.00043   2.19554
    A2        2.09078  -0.00228   0.00000  -0.01343  -0.01344   2.07734
    A3        1.99644   0.00210   0.00000   0.01387   0.01387   2.01031
    A4        2.07635  -0.00037   0.00000  -0.00679  -0.00690   2.06945
    A5        2.00407   0.00124   0.00000   0.00313   0.00302   2.00709
    A6        2.03543  -0.00130   0.00000  -0.01361  -0.01376   2.02167
    A7        2.03453   0.00040   0.00000   0.00324   0.00324   2.03777
    A8        2.11532  -0.00018   0.00000  -0.00112  -0.00111   2.11421
    A9        2.10897  -0.00029   0.00000  -0.00155  -0.00154   2.10743
   A10        2.05869   0.00046   0.00000   0.00272   0.00272   2.06141
   A11        2.12147  -0.00042   0.00000  -0.00112  -0.00113   2.12034
   A12        2.12900  -0.00071   0.00000  -0.00231  -0.00232   2.12668
   A13        2.03272   0.00113   0.00000   0.00344   0.00344   2.03616
   A14        2.12729  -0.00056   0.00000  -0.00109  -0.00109   2.12619
   A15        2.07392   0.00083   0.00000   0.00396   0.00397   2.07788
   A16        2.08177  -0.00027   0.00000  -0.00291  -0.00291   2.07886
   A17        2.09392  -0.00046   0.00000  -0.00246  -0.00246   2.09145
   A18        2.02730  -0.00070   0.00000  -0.00449  -0.00450   2.02281
   A19        2.16147   0.00116   0.00000   0.00707   0.00707   2.16854
   A20        2.19471  -0.00215   0.00000  -0.00887  -0.00887   2.18584
   A21        1.99080   0.00353   0.00000   0.01381   0.01380   2.00460
   A22        2.09747  -0.00138   0.00000  -0.00501  -0.00500   2.09247
   A23        2.12994  -0.00141   0.00000  -0.00522  -0.00526   2.12468
   A24        2.16027  -0.00035   0.00000  -0.00096  -0.00100   2.15927
   A25        1.99293   0.00176   0.00000   0.00632   0.00630   1.99923
   A26        2.08581   0.00007   0.00000  -0.00023  -0.00023   2.08558
   A27        2.10939   0.00044   0.00000   0.00315   0.00314   2.11253
   A28        2.08765  -0.00050   0.00000  -0.00274  -0.00275   2.08490
   A29        2.08634  -0.00002   0.00000  -0.00062  -0.00062   2.08572
   A30        2.10837   0.00039   0.00000   0.00278   0.00277   2.11115
   A31        2.08806  -0.00037   0.00000  -0.00194  -0.00195   2.08610
   A32        2.16371  -0.00083   0.00000  -0.00312  -0.00312   2.16059
   A33        2.02604   0.00112   0.00000   0.00594   0.00594   2.03198
   A34        2.09341  -0.00029   0.00000  -0.00280  -0.00280   2.09061
   A35        2.16320  -0.00074   0.00000  -0.00271  -0.00271   2.16049
   A36        2.02619   0.00107   0.00000   0.00574   0.00574   2.03193
   A37        2.09373  -0.00033   0.00000  -0.00300  -0.00300   2.09073
    D1        0.00086   0.00005   0.00000   0.00308   0.00308   0.00394
    D2        3.10986   0.00017   0.00000   0.00705   0.00704   3.11690
    D3       -3.13894   0.00003   0.00000   0.00287   0.00288  -3.13606
    D4       -0.02994   0.00016   0.00000   0.00684   0.00683  -0.02311
    D5        3.11823   0.00024   0.00000   0.01407   0.01406   3.13229
    D6       -0.01260   0.00001   0.00000   0.00036   0.00036  -0.01223
    D7       -0.02508   0.00025   0.00000   0.01425   0.01424  -0.01084
    D8        3.12729   0.00002   0.00000   0.00054   0.00054   3.12782
    D9        0.38826   0.00012   0.00000  -0.00544  -0.00548   0.38279
   D10       -2.77538   0.00003   0.00000  -0.00887  -0.00891  -2.78429
   D11        2.92112  -0.00102   0.00000  -0.03802  -0.03797   2.88315
   D12       -0.24252  -0.00111   0.00000  -0.04145  -0.04141  -0.28393
   D13        0.00331   0.00001   0.00000   0.00056   0.00056   0.00387
   D14        3.13778   0.00005   0.00000   0.00226   0.00227   3.14005
   D15        0.00240   0.00001   0.00000   0.00027   0.00027   0.00266
   D16        3.13125   0.00008   0.00000   0.00330   0.00330   3.13455
   D17        0.62617  -0.00034   0.00000  -0.03172  -0.03172   0.59445
   D18       -2.51692  -0.00032   0.00000  -0.03063  -0.03063  -2.54755
   D19       -2.49334  -0.00041   0.00000  -0.03513  -0.03513  -2.52847
   D20        0.64676  -0.00039   0.00000  -0.03404  -0.03404   0.61272
   D21       -3.12481  -0.00005   0.00000  -0.00383  -0.00383  -3.12864
   D22        0.03900  -0.00001   0.00000  -0.00183  -0.00184   0.03716
   D23       -0.00468   0.00001   0.00000  -0.00056  -0.00056  -0.00525
   D24       -3.12407   0.00004   0.00000   0.00143   0.00143  -3.12263
   D25        3.12847   0.00000   0.00000   0.00030   0.00030   3.12877
   D26        0.02210  -0.00009   0.00000  -0.00375  -0.00376   0.01834
   D27        0.00826  -0.00006   0.00000  -0.00296  -0.00296   0.00530
   D28       -3.09810  -0.00015   0.00000  -0.00700  -0.00702  -3.10512
   D29        3.13339   0.00005   0.00000   0.00219   0.00219   3.13558
   D30        0.01972  -0.00012   0.00000  -0.00538  -0.00539   0.01433
   D31       -0.00679   0.00003   0.00000   0.00116   0.00116  -0.00563
   D32       -3.12045  -0.00014   0.00000  -0.00642  -0.00643  -3.12688
   D33       -3.12819  -0.00002   0.00000  -0.00143  -0.00143  -3.12962
   D34        0.04453  -0.00021   0.00000  -0.01002  -0.01003   0.03450
   D35        0.01198  -0.00001   0.00000  -0.00039  -0.00039   0.01159
   D36       -3.09848  -0.00019   0.00000  -0.00898  -0.00899  -3.10748
   D37        3.11065   0.00003   0.00000   0.00072   0.00073   3.11138
   D38       -0.00765   0.00008   0.00000   0.00413   0.00411  -0.00354
   D39       -0.05325   0.00001   0.00000  -0.00120  -0.00118  -0.05443
   D40        3.11163   0.00005   0.00000   0.00221   0.00220   3.11384
   D41        0.04719  -0.00019   0.00000  -0.01456  -0.01456   0.03263
   D42       -3.10539   0.00003   0.00000  -0.00060  -0.00058  -3.10597
   D43       -3.11510  -0.00030   0.00000  -0.01785  -0.01787  -3.13297
   D44        0.01551  -0.00007   0.00000  -0.00389  -0.00389   0.01161
   D45       -0.00093  -0.00003   0.00000  -0.00131  -0.00131  -0.00224
   D46       -3.13514  -0.00008   0.00000  -0.00311  -0.00310  -3.13825
   D47        3.11309   0.00015   0.00000   0.00626   0.00625   3.11934
   D48       -0.02112   0.00010   0.00000   0.00446   0.00446  -0.01667
   D49       -0.01034  -0.00000   0.00000  -0.00031  -0.00031  -0.01065
   D50       -3.13872  -0.00008   0.00000  -0.00351  -0.00350   3.14096
   D51        3.10049   0.00019   0.00000   0.00826   0.00825   3.10874
   D52       -0.02789   0.00011   0.00000   0.00506   0.00506  -0.02283
         Item               Value     Threshold  Converged?
 Maximum Force            0.012704     0.000450     NO 
 RMS     Force            0.001557     0.000300     NO 
 Maximum Displacement     0.080510     0.001800     NO 
 RMS     Displacement     0.024577     0.001200     NO 
 Predicted change in Energy=-3.489622D-04
 GradGradGradGradGradGradGradGradGradGradGradGradGradGradGradGradGradGrad

                          Input orientation:                          
 ---------------------------------------------------------------------
 Center     Atomic      Atomic             Coordinates (Angstroms)
 Number     Number       Type             X           Y           Z
 ---------------------------------------------------------------------
      1          8           0        4.102349   -0.664811   -0.126936
      2          7           0        1.985084   -1.515179   -0.294378
      3          7           0        3.141860    1.862675    0.312115
      4          7           0       -4.250559    0.211001    0.015019
      5          6           0        0.036778   -0.197305   -0.024041
      6          6           0       -1.435028   -0.057603   -0.004068
      7          6           0        0.889587    0.931500    0.184909
      8          6           0        0.620748   -1.410171   -0.265270
      9          6           0        2.257266    0.820703    0.154461
     10          6           0        2.878794   -0.482569   -0.093211
     11          6           0       -2.067182    1.101878   -0.475861
     12          6           0       -2.268330   -1.073976    0.485335
     13          6           0       -3.455005    1.186237   -0.444279
     14          6           0       -3.647273   -0.896630    0.467944
     15          1           0        0.443059    1.897161    0.395072
     16          1           0        0.073201   -2.318857   -0.468186
     17          1           0        2.404677   -2.418618   -0.478959
     18          1           0       -1.492624    1.925400   -0.881820
     19          1           0       -1.852570   -1.986237    0.895613
     20          1           0       -3.949671    2.080916   -0.811430
     21          1           0       -4.297064   -1.681033    0.845293
     22          1           0        2.825920    2.696277    0.782666
     23          1           0        4.096299    1.588146    0.496393
 ---------------------------------------------------------------------
                    Distance matrix (angstroms):
                    1          2          3          4          5
     1  O    0.000000
     2  N    2.287787   0.000000
     3  N    2.739250   3.621583   0.000000
     4  N    8.399897   6.477551   7.580512   0.000000
     5  C    4.093655   2.367651   3.741398   4.306913   0.000000
     6  C    5.571925   3.729072   4.973465   2.828378   1.478557
     7  C    3.601013   2.723246   2.440493   5.193176   1.430085
     8  C    3.563179   1.368681   4.171439   5.141633   1.367573
     9  C    2.385428   2.394136   1.375888   6.537810   2.449239
    10  C    1.237512   1.380387   2.394507   7.163827   2.857134
    11  C    6.426978   4.827296   5.322954   2.408684   2.513696
    12  C    6.413099   4.346740   6.158254   2.408650   2.518242
    13  C    7.787213   6.075746   6.674454   1.339756   3.779330
    14  C    7.775876   5.717270   7.330101   1.340128   3.781975
    15  H    4.497399   3.807525   2.700296   5.001762   2.174283
    16  H    4.368793   2.081203   5.245069   5.032750   2.167850
    17  H    2.466140   1.013080   4.415734   7.172941   3.278434
    18  H    6.211502   4.927182   4.786215   3.368930   2.753312
    19  H    6.184887   4.045438   6.332372   3.369518   2.759652
    20  H    8.534786   6.958489   7.183300   2.066429   4.658546
    21  H    8.516341   6.386841   8.257103   2.066716   4.662551
    22  H    3.708580   4.427572   1.008032   7.539392   4.099135
    23  H    2.337604   3.835776   1.010088   8.473387   4.465243
                    6          7          8          9         10
     6  C    0.000000
     7  C    2.533352   0.000000
     8  C    2.474648   2.399658   0.000000
     9  C    3.798630   1.372498   2.798422   0.000000
    10  C    4.335620   2.456397   2.447207   1.464977   0.000000
    11  C    1.402356   3.034490   3.685065   4.379180   5.207645
    12  C    1.402470   3.752949   3.003865   4.917348   5.213191
    13  C    2.412723   4.397300   4.835819   5.755184   6.559357
    14  C    2.412631   4.899516   4.360886   6.157197   6.563222
    15  H    2.740005   1.084462   3.377287   2.123206   3.440107
    16  H    2.757432   3.414357   1.080135   3.874876   3.374005
    17  H    4.532467   3.736243   2.060348   3.303960   2.030240
    18  H    2.169347   2.792969   3.996562   4.044243   5.052673
    19  H    2.168732   4.066659   2.792276   5.031796   5.062074
    20  H    3.398312   5.072698   5.777085   6.406805   7.329067
    21  H    3.398262   5.844893   5.048919   7.049480   7.335532
    22  H    5.134052   2.687218   4.777433   2.058103   3.297729
    23  H    5.792628   3.288041   4.652901   2.021863   2.473421
                   11         12         13         14         15
    11  C    0.000000
    12  C    2.387195   0.000000
    13  C    1.390743   2.716789   0.000000
    14  C    2.716889   1.390409   2.281985   0.000000
    15  H    2.773502   4.023361   4.050287   4.953927   0.000000
    16  H    4.035186   2.818102   4.973379   4.091576   4.319354
    17  H    5.691347   4.957310   6.879830   6.311828   4.820563
    18  H    1.083102   3.386309   2.142135   3.798451   2.319077
    19  H    3.385772   1.083238   3.798382   2.142685   4.538858
    20  H    2.148229   3.802874   1.086252   3.254846   4.559111
    21  H    3.802948   2.147987   3.254735   1.086236   5.956084
    22  H    5.297966   6.344651   6.575381   7.410145   2.542998
    23  H    6.258613   6.898951   7.620275   8.132516   3.667686
                   16         17         18         19         20
    16  H    0.000000
    17  H    2.333634   0.000000
    18  H    4.542754   5.849936   0.000000
    19  H    2.383103   4.494503   4.311582   0.000000
    20  H    5.971542   7.793208   2.462970   4.884011   0.000000
    21  H    4.607739   6.871027   4.884073   2.463987   4.125248
    22  H    5.856079   5.285007   4.691970   6.620194   6.987735
    23  H    5.690378   4.457247   5.766218   6.951592   8.166447
                   21         22         23
    21  H    0.000000
    22  H    8.360721   0.000000
    23  H    9.014311   1.709904   0.000000
 Stoichiometry    C10H9N3O
 Framework group  C1[X(C10H9N3O)]
 Deg. of freedom    63
 Full point group                 C1      NOp   1
 Largest Abelian subgroup         C1      NOp   1
 Largest concise Abelian subgroup C1      NOp   1
                         Standard orientation:                         
 ---------------------------------------------------------------------
 Center     Atomic      Atomic             Coordinates (Angstroms)
 Number     Number       Type             X           Y           Z
 ---------------------------------------------------------------------
      1          8           0        4.102277   -0.660288   -0.124844
      2          7           0        1.985803   -1.511690   -0.296967
      3          7           0        3.139490    1.864937    0.322113
      4          7           0       -4.251414    0.208653    0.013207
      5          6           0        0.036265   -0.196243   -0.023707
      6          6           0       -1.435664   -0.057734   -0.004472
      7          6           0        0.888036    0.932486    0.189835
      8          6           0        0.621363   -1.407825   -0.268627
      9          6           0        2.255825    0.822839    0.160139
     10          6           0        2.878555   -0.479097   -0.091505
     11          6           0       -2.068316    1.102882   -0.472793
     12          6           0       -2.268590   -1.076423    0.480738
     13          6           0       -3.456229    1.186072   -0.442071
     14          6           0       -3.647653   -0.900071    0.462815
     15          1           0        0.440595    1.897077    0.402953
     16          1           0        0.074681   -2.316224   -0.475125
     17          1           0        2.406241   -2.414168   -0.484310
     18          1           0       -1.494053    1.928236   -0.875437
     19          1           0       -1.852470   -1.989774    0.888216
     20          1           0       -3.951277    2.081632   -0.806547
     21          1           0       -4.297154   -1.686265    0.836922
     22          1           0        2.822522    2.696672    0.795270
     23          1           0        4.093986    1.590504    0.506235
 ---------------------------------------------------------------------
 Rotational constants (GHZ):           2.0367345           0.3555276           0.3099178
 Standard basis: 6-311++G(d,p) (5D, 7F)
 There are   385 symmetry adapted cartesian basis functions of A   symmetry.
 There are   371 symmetry adapted basis functions of A   symmetry.
   371 basis functions,   585 primitive gaussians,   385 cartesian basis functions
    49 alpha electrons       49 beta electrons
       nuclear repulsion energy       805.9901288039 Hartrees.
 NAtoms=   23 NActive=   23 NUniq=   23 SFac= 1.00D+00 NAtFMM=   60 NAOKFM=F Big=F
 Integral buffers will be    131072 words long.
 Raffenetti 2 integral format.
 Two-electron integral symmetry is turned on.
 ------------------------------------------------------------------------------
 Polarizable Continuum Model (PCM)
 =================================
 Model                : PCM.
 Atomic radii         : UFF (Universal Force Field).
 Polarization charges : Total charges.
 Charge compensation  : None.
 Solution method      : On-the-fly selection.
 Cavity type          : Scaled VdW (van der Waals Surface) (Alpha=1.100).
 Cavity algorithm     : GePol (No added spheres)
                        Default sphere list used, NSphG=   23.
                        Lebedev-Laikov grids with approx.  5.0 points / Ang**2.
                        Smoothing algorithm: York/Karplus (Gamma=1.0000).
                        Polarization charges: spherical gaussians, with
                                              point-specific exponents (IZeta= 3).
                        Self-potential: point-specific (ISelfS= 7).
                        Self-field    : sphere-specific E.n sum rule (ISelfD= 2).
 1st derivatives      : Analytical E(r).r(x)/FMM algorithm (CHGder, D1EAlg=3).
                        Cavity 1st derivative terms included.
 Solvent              : Water, Eps=  78.355300 Eps(inf)=   1.777849
 ------------------------------------------------------------------------------
 One-electron integrals computed using PRISM.
 NBasis=   371 RedAO= T EigKep=  1.39D-06  NBF=   371
 NBsUse=   370 1.00D-06 EigRej=  5.59D-07 NBFU=   370
 Initial guess from the checkpoint file:  "Amrinone.chk"
 B after Tr=     0.000000   -0.000000    0.000000
         Rot=    1.000000   -0.000958    0.000068   -0.000054 Ang=  -0.11 deg.
 ExpMin= 3.60D-02 ExpMax= 8.59D+03 ExpMxC= 1.30D+03 IAcc=3 IRadAn=         5 AccDes= 0.00D+00
 Harris functional with IExCor=  402 and IRadAn=       5 diagonalized for initial guess.
 HarFok:  IExCor=  402 AccDes= 0.00D+00 IRadAn=         5 IDoV= 1 UseB2=F ITyADJ=14
 ICtDFT=  3500011 ScaDFX=  1.000000  1.000000  1.000000  1.000000
 FoFCou: FMM=F IPFlag=           0 FMFlag=      100000 FMFlg1=           0
         NFxFlg=           0 DoJE=T BraDBF=F KetDBF=T FulRan=T
         wScrn=  0.000000 ICntrl=       500 IOpCl=  0 I1Cent=   200000004 NGrid=           0
         NMat0=    1 NMatS0=      1 NMatT0=    0 NMatD0=    1 NMtDS0=    0 NMtDT0=    0
 Petite list used in FoFCou.
 Requested convergence on RMS density matrix=1.00D-08 within 128 cycles.
 Requested convergence on MAX density matrix=1.00D-06.
 Requested convergence on             energy=1.00D-06.
 No special actions if energy rises.
 Inv3:  Mode=1 IEnd=    10944300.
 Iteration    1 A*A^-1 deviation from unit magnitude is 5.88D-15 for   1905.
 Iteration    1 A*A^-1 deviation from orthogonality  is 2.22D-15 for   1902    952.
 Iteration    1 A^-1*A deviation from unit magnitude is 5.88D-15 for   1905.
 Iteration    1 A^-1*A deviation from orthogonality  is 1.86D-15 for   1701    704.
 Error on total polarization charges =  0.01778
 SCF Done:  E(RB3LYP) =  -626.166715213     A.U. after   14 cycles
            NFock= 14  Conv=0.26D-08     -V/T= 2.0042
 D1PCM: PCM CHGder 1st derivatives, ID1Alg=3 FixD1E=F DoIter=F DoCFld=F I1PDM=0.
 Calling FoFJK, ICntrl=      2127 FMM=F ISym2X=0 I1Cent= 0 IOpClX= 0 NMat=1 NMatS=1 NMatT=0.
 ***** Axes restored to original set *****
 -------------------------------------------------------------------
 Center     Atomic                   Forces (Hartrees/Bohr)
 Number     Number              X              Y              Z
 -------------------------------------------------------------------
      1        8           0.004309112   -0.000592318    0.000439366
      2        7           0.001193894    0.001405491    0.000670937
      3        7           0.000395266   -0.000101451   -0.001945548
      4        7          -0.000857765    0.000188411    0.000005383
      5        6          -0.000115531    0.001262765    0.000142854
      6        6           0.000048870    0.000052653   -0.000022673
      7        6          -0.001199024   -0.000711789   -0.000002144
      8        6           0.000552676   -0.000565169   -0.000096705
      9        6           0.001558800   -0.002446030    0.000560932
     10        6          -0.006440576    0.001317441   -0.001305170
     11        6           0.000075039   -0.000205343    0.000323617
     12        6          -0.000090606    0.000142097   -0.000291035
     13        6           0.000309590   -0.000243632    0.000175264
     14        6           0.000506169    0.000006617   -0.000214168
     15        1           0.000251053   -0.000012160   -0.000032180
     16        1           0.000164755    0.000013716    0.000114820
     17        1          -0.000237844   -0.000035442   -0.000042013
     18        1          -0.000156301   -0.000031593   -0.000026069
     19        1          -0.000154098    0.000043724    0.000017775
     20        1          -0.000095302   -0.000198379    0.000017127
     21        1          -0.000061996    0.000219593    0.000008048
     22        1          -0.000104092    0.000014022    0.000549701
     23        1           0.000147910    0.000476774    0.000951881
 -------------------------------------------------------------------
 Cartesian Forces:  Max     0.006440576 RMS     0.001129870

 GradGradGradGradGradGradGradGradGradGradGradGradGradGradGradGradGradGrad
 Berny optimization.
 Using GEDIIS/GDIIS optimizer.
 FormGI is forming the generalized inverse of G from B-inverse, IUseBI=4.
 Internal  Forces:  Max     0.004335706 RMS     0.000555990
 Search for a local minimum.
 Step number   2 out of a maximum of  123
 All quantities printed in internal units (Hartrees-Bohrs-Radians)
 Mixed Optimization -- En-DIIS/RFO-DIIS
 Update second derivatives using D2CorX and points    1    2
 DE= -4.23D-04 DEPred=-3.49D-04 R= 1.21D+00
 TightC=F SS=  1.41D+00  RLast= 1.05D-01 DXNew= 5.0454D-01 3.1371D-01
 Trust test= 1.21D+00 RLast= 1.05D-01 DXMaxT set to 3.14D-01
 ITU=  1  0
 Use linear search instead of GDIIS.
     Eigenvalues ---    0.00968   0.01570   0.01646   0.01746   0.01781
     Eigenvalues ---    0.01885   0.01966   0.01985   0.02038   0.02090
     Eigenvalues ---    0.02092   0.02142   0.02153   0.02214   0.02267
     Eigenvalues ---    0.02292   0.02325   0.02340   0.02445   0.03255
     Eigenvalues ---    0.14988   0.15994   0.15996   0.15996   0.15997
     Eigenvalues ---    0.16000   0.16000   0.16000   0.16462   0.22001
     Eigenvalues ---    0.22354   0.22863   0.23418   0.23785   0.24581
     Eigenvalues ---    0.24952   0.24996   0.25000   0.26437   0.34683
     Eigenvalues ---    0.34967   0.35209   0.35253   0.35429   0.35557
     Eigenvalues ---    0.35616   0.35938   0.39266   0.42330   0.43435
     Eigenvalues ---    0.44171   0.45717   0.45842   0.45934   0.46504
     Eigenvalues ---    0.47161   0.47910   0.50175   0.50783   0.51179
     Eigenvalues ---    0.57034   0.57915   0.81854
 RFO step:  Lambda=-1.74290102D-04 EMin= 9.68299650D-03
 Quartic linear search produced a step of  0.30096.
 Iteration  1 RMS(Cart)=  0.01853640 RMS(Int)=  0.00017064
 Iteration  2 RMS(Cart)=  0.00019961 RMS(Int)=  0.00005599
 Iteration  3 RMS(Cart)=  0.00000004 RMS(Int)=  0.00005599
 Variable       Old X    -DE/DX   Delta X   Delta X   Delta X     New X
                                 (Linear)    (Quad)   (Total)
    R1        2.33856   0.00434   0.00420   0.00550   0.00970   2.34826
    R2        2.58643  -0.00007  -0.00204   0.00009  -0.00195   2.58448
    R3        2.60855  -0.00163  -0.00209  -0.00423  -0.00630   2.60225
    R4        1.91444  -0.00006   0.00074  -0.00029   0.00046   1.91490
    R5        2.60005   0.00052   0.00140   0.00112   0.00253   2.60258
    R6        1.90490   0.00030   0.00070   0.00072   0.00142   1.90632
    R7        1.90879   0.00019  -0.00054   0.00061   0.00007   1.90886
    R8        2.53177  -0.00017   0.00178  -0.00068   0.00110   2.53287
    R9        2.53247  -0.00006   0.00183  -0.00044   0.00139   2.53386
   R10        2.79407   0.00047  -0.00026   0.00181   0.00155   2.79562
   R11        2.70247  -0.00076  -0.00108  -0.00202  -0.00312   2.69935
   R12        2.58434   0.00060   0.00077   0.00151   0.00227   2.58661
   R13        2.65007  -0.00018   0.00054  -0.00060  -0.00005   2.65002
   R14        2.65028  -0.00004   0.00045  -0.00018   0.00027   2.65055
   R15        2.59364   0.00089   0.00064   0.00225   0.00288   2.59653
   R16        2.04934  -0.00012  -0.00021  -0.00041  -0.00062   2.04872
   R17        2.04116  -0.00012  -0.00020  -0.00039  -0.00059   2.04057
   R18        2.76840  -0.00213  -0.00091  -0.00767  -0.00857   2.75983
   R19        2.62812   0.00016  -0.00051   0.00051   0.00000   2.62813
   R20        2.04677  -0.00010  -0.00025  -0.00031  -0.00056   2.04620
   R21        2.62749   0.00004  -0.00050   0.00019  -0.00031   2.62718
   R22        2.04702  -0.00009  -0.00030  -0.00028  -0.00058   2.04644
   R23        2.05272  -0.00012  -0.00019  -0.00043  -0.00062   2.05210
   R24        2.05269  -0.00012  -0.00021  -0.00041  -0.00062   2.05207
    A1        2.19554   0.00030  -0.00013   0.00121   0.00111   2.19665
    A2        2.07734  -0.00038  -0.00404  -0.00177  -0.00583   2.07151
    A3        2.01031   0.00007   0.00417   0.00055   0.00471   2.01502
    A4        2.06945  -0.00067  -0.00208  -0.00991  -0.01224   2.05721
    A5        2.00709   0.00064   0.00091   0.00017   0.00082   2.00791
    A6        2.02167  -0.00047  -0.00414  -0.00912  -0.01359   2.00808
    A7        2.03777  -0.00071   0.00098  -0.00407  -0.00309   2.03468
    A8        2.11421   0.00049  -0.00033   0.00231   0.00198   2.11619
    A9        2.10743   0.00035  -0.00046   0.00157   0.00112   2.10854
   A10        2.06141  -0.00084   0.00082  -0.00381  -0.00302   2.05839
   A11        2.12034   0.00025  -0.00034   0.00142   0.00108   2.12142
   A12        2.12668   0.00027  -0.00070   0.00155   0.00085   2.12753
   A13        2.03616  -0.00052   0.00104  -0.00297  -0.00193   2.03423
   A14        2.12619   0.00014  -0.00033   0.00139   0.00105   2.12725
   A15        2.07788   0.00016   0.00119   0.00098   0.00218   2.08006
   A16        2.07886  -0.00029  -0.00088  -0.00236  -0.00324   2.07563
   A17        2.09145   0.00006  -0.00074   0.00065  -0.00011   2.09135
   A18        2.02281  -0.00016  -0.00135  -0.00103  -0.00238   2.02042
   A19        2.16854   0.00010   0.00213   0.00048   0.00260   2.17114
   A20        2.18584  -0.00054  -0.00267  -0.00233  -0.00502   2.18082
   A21        2.00460   0.00037   0.00415   0.00132   0.00545   2.01004
   A22        2.09247   0.00016  -0.00150   0.00085  -0.00064   2.09184
   A23        2.12468   0.00009  -0.00158   0.00112  -0.00063   2.12405
   A24        2.15927  -0.00026  -0.00030  -0.00091  -0.00139   2.15788
   A25        1.99923   0.00017   0.00190  -0.00012   0.00167   2.00090
   A26        2.08558   0.00021  -0.00007   0.00113   0.00106   2.08664
   A27        2.11253   0.00002   0.00094   0.00027   0.00121   2.11374
   A28        2.08490  -0.00023  -0.00083  -0.00144  -0.00227   2.08263
   A29        2.08572   0.00023  -0.00019   0.00126   0.00107   2.08679
   A30        2.11115   0.00002   0.00083   0.00032   0.00115   2.11230
   A31        2.08610  -0.00025  -0.00059  -0.00163  -0.00222   2.08389
   A32        2.16059   0.00041  -0.00094   0.00240   0.00146   2.16205
   A33        2.03198  -0.00038   0.00179  -0.00281  -0.00102   2.03095
   A34        2.09061  -0.00003  -0.00084   0.00040  -0.00044   2.09017
   A35        2.16049   0.00039  -0.00082   0.00226   0.00144   2.16193
   A36        2.03193  -0.00037   0.00173  -0.00280  -0.00107   2.03086
   A37        2.09073  -0.00002  -0.00090   0.00051  -0.00040   2.09032
    D1        0.00394  -0.00008   0.00093  -0.00622  -0.00528  -0.00134
    D2        3.11690  -0.00002   0.00212  -0.00276  -0.00065   3.11625
    D3       -3.13606  -0.00004   0.00087  -0.00399  -0.00312  -3.13918
    D4       -0.02311   0.00002   0.00206  -0.00053   0.00152  -0.02159
    D5        3.13229  -0.00022   0.00423  -0.01988  -0.01565   3.11664
    D6       -0.01223   0.00019   0.00011   0.01461   0.01473   0.00250
    D7       -0.01084  -0.00025   0.00428  -0.02204  -0.01776  -0.02860
    D8        3.12782   0.00016   0.00016   0.01245   0.01262   3.14044
    D9        0.38279   0.00030  -0.00165   0.00762   0.00588   0.38867
   D10       -2.78429   0.00020  -0.00268   0.00035  -0.00242  -2.78671
   D11        2.88315  -0.00061  -0.01143  -0.02430  -0.03563   2.84751
   D12       -0.28393  -0.00072  -0.01246  -0.03157  -0.04394  -0.32787
[...]
 0278721,0.00509826,-0.02014151,0.04577571,-0.01542318,0.00015215,0.000
 86452,0.00008678,0.00046757,-0.00130588,0.00043427,-0.00053193,0.00039
 717,-0.00043221,0.00100456,-0.00019059,-0.00017889,0.03950815,-0.02078
 824,0.00307394,-0.01411661,-0.12565026,0.02480456,-0.03715545,-0.07988
 833,0.03623288,0.04104379,0.62735176,-0.00036047,0.00003678,-0.0001032
 3,-0.00011623,-0.00004750,0.00000378,0.00021497,-0.00002092,-0.0000382
 0,-0.03270473,0.07365892,-0.09588338,0.00022257,0.00518377,0.00550172,
 0.01166337,-0.01409038,0.01135200,0.00165178,-0.00026286,-0.00007429,-
 0.00074926,-0.00046117,0.00001903,-0.00025037,0.00059540,0.00002585,0.
 00034387,-0.00001957,0.00030615,-0.01512549,0.00437154,-0.00936196,0.0
 1793735,0.02232832,-0.07789282,0.01353093,0.03428663,-0.01099384,-0.04
 220935,-0.19707174,0.24033498,-0.00117385,0.00215721,0.00038029,-0.000
 48644,0.00032035,0.00009782,0.00250567,0.00080899,0.00024124,0.0001841
 6,0.00023578,-0.00012354,0.01103778,-0.01623782,-0.00303973,0.00065786
 ,0.00013327,-0.00019582,-0.10435040,0.10021697,0.02101661,-0.00231356,
 -0.00337835,-0.00057172,-0.00940984,0.02985187,0.00602117,-0.00469720,
 -0.00292967,-0.00046677,-0.00061719,-0.00047965,-0.00017686,0.00008769
 ,-0.00006148,0.00001309,-0.00035162,0.00009255,0.00014475,0.00012319,-
 0.00002855,0.00000923,0.10998004,0.00090673,-0.00013441,0.00042639,0.0
 0016729,0.00069017,0.00034458,-0.00073222,0.00086265,0.00123810,0.0000
 3812,0.00031923,-0.00024658,0.01077437,-0.01753098,-0.00384028,0.00222
 086,0.00015997,0.00051899,0.10029514,-0.27812790,-0.04912663,-0.004417
 80,-0.00221437,-0.00113357,-0.00001006,0.00003218,-0.00144578,-0.00166
 166,0.00172609,-0.00168552,0.00012128,0.00011747,0.00048469,-0.0006268
 5,-0.00010930,0.00019655,-0.00024707,0.00026906,0.00011193,0.00038849,
 -0.00024135,0.00001976,-0.10906974,0.29388920,0.00012513,0.00042301,-0
 .00235821,-0.00001776,0.00029509,-0.00124337,-0.00036602,0.00190392,-0
 .00363498,0.00008798,-0.00012195,0.00005685,0.00284256,-0.00307566,0.0
 0141589,-0.00039923,0.00072321,-0.00184057,0.02121812,-0.04991935,-0.0
 4619285,-0.00076462,-0.00107459,0.00374060,-0.00021391,-0.00152765,0.0
 0724233,-0.00029328,-0.00149907,0.01003091,-0.00045595,-0.00056705,0.0
 0024782,0.00036994,0.00009582,-0.00004507,0.00018299,0.00027745,-0.000
 17727,-0.00012594,0.00020051,0.00002612,-0.02155092,0.05452590,0.03404
 110,-0.00281608,-0.00145373,-0.00026910,-0.02287711,-0.03218401,-0.006
 11007,0.00046480,0.00009224,-0.00011163,0.00007845,-0.00016100,0.00008
 235,0.01202569,0.01036983,0.00215292,0.00040295,-0.00000960,0.00011836
 ,-0.00121005,0.00274602,0.00054654,-0.12704163,-0.11706314,-0.02452821
 ,-0.00048123,-0.00036277,-0.00005774,-0.00005261,0.00615176,0.00112524
 ,0.00005013,-0.00003509,0.00002058,-0.00046841,0.00050914,0.00016407,0
 .00006572,-0.00000957,-0.00000675,-0.00022305,-0.00004195,-0.00012956,
 0.00062176,0.00067742,0.00013541,0.14205214,0.00011097,0.00015208,-0.0
 0011334,0.00473747,0.00728563,0.00126537,-0.00000120,0.00023642,0.0000
 4433,-0.00012132,0.00034884,-0.00026355,-0.01477975,-0.01440478,-0.003
 71426,-0.00160008,0.00027204,0.00096491,0.00399506,-0.00248283,-0.0017
 5654,-0.12498200,-0.27102728,-0.04915446,0.00033858,0.00006195,0.00006
 259,0.00205503,0.00141177,-0.00046388,0.00046776,-0.00017273,0.0001087
 2,-0.00020270,-0.00001902,0.00036773,-0.00031671,-0.00018222,0.0000588
 0,0.00043213,0.00013637,0.00014419,-0.00086640,-0.00083948,-0.00018167
 ,0.13083755,0.27839409,-0.00001020,0.00009515,0.00064390,0.00180743,0.
 00161744,0.00136418,-0.00027748,0.00006460,-0.00055179,-0.00006799,-0.
 00038387,0.00019122,-0.00441984,-0.00294879,0.00398672,0.00097379,0.00
 101317,-0.00403652,0.00081792,-0.00161970,0.00594252,-0.02622580,-0.05
 038654,-0.04099429,0.00012374,0.00042224,-0.00008554,0.00055056,-0.001
 01834,0.00346579,-0.00067569,0.00034912,0.00003321,0.00065768,-0.00071
 916,0.00014552,0.00035743,0.00040389,0.00006821,-0.00041846,0.00051134
 ,-0.00025820,-0.00022219,-0.00017653,0.00042041,0.02606731,0.05224701,
 0.03248830,0.00001564,0.00366658,0.00072909,-0.13171965,0.13260354,0.0
 2506229,0.00076127,-0.00110713,-0.00044230,-0.00005455,0.00000138,0.00
 003216,-0.00565588,-0.00230709,-0.00022391,0.00017626,0.00135320,0.000
 14387,0.00006208,-0.00063411,-0.00013672,-0.01044506,0.03288062,0.0061
 2934,-0.00355155,-0.00272299,-0.00033210,0.01805954,-0.02245759,-0.004
 14577,-0.00042702,-0.00011552,0.00006811,-0.00003142,0.00002185,-0.000
 04022,0.00004152,0.00010166,-0.00011580,0.00003205,-0.00005307,-0.0000
 2534,0.00003381,0.00004876,-0.00000207,0.00063512,-0.00013425,-0.00002
 565,0.13220220,0.00261453,0.00386828,0.00151461,0.13208852,-0.36844223
 ,-0.06558097,0.00139725,0.00011422,-0.00040872,-0.00022330,-0.00000678
 ,-0.00001594,-0.00217580,0.00397876,0.00001068,0.00056085,0.00018112,-
 0.00028992,-0.00151040,-0.00052119,0.00003859,0.00200902,0.00421674,0.
 00171502,-0.00386739,-0.00285868,-0.00129892,0.01117005,-0.02306467,-0
 .00461157,-0.00044080,0.00012323,-0.00000451,-0.00025502,-0.00004930,-
 0.00000363,0.00017105,0.00006112,0.00004836,0.00014331,-0.00003549,0.0
 0001752,0.00003545,0.00002521,0.00006225,-0.00056861,0.00048183,0.0005
 8859,-0.14083004,0.38223818,0.00030990,0.00148180,-0.00390929,0.024335
 97,-0.06598257,-0.03010783,0.00033294,0.00004979,-0.00034866,-0.000130
 35,-0.00003229,0.00009027,-0.00092625,0.00038198,0.00438947,0.00061095
 ,-0.00043262,0.00158981,-0.00016315,0.00004166,-0.00090386,0.00091930,
 0.00109233,-0.00341358,-0.00055207,-0.00138377,0.00505064,0.00236409,-
 0.00392356,0.00165284,0.00002387,0.00013308,-0.00016916,-0.00020272,-0
 .00006279,-0.00006216,0.00018987,-0.00009766,-0.00011210,0.00001378,-0
 .00004560,-0.00014141,-0.00000920,0.00006684,-0.00037412,-0.00019650,0
 .00065779,-0.00226140,-0.02680180,0.06798738,0.02900629,0.00024915,-0.
 00007426,-0.00003091,0.00014399,-0.00010244,-0.00003071,0.00020621,0.0
 0026303,-0.00010629,-0.00660616,0.00042435,0.00051024,0.00041581,-0.00
 020997,-0.00024006,0.01116747,0.01116116,-0.00520753,-0.00051088,0.000
 40054,-0.00048137,0.00010363,-0.00000374,0.00003153,-0.00023554,-0.000
 40847,0.00009902,-0.00028711,0.00015572,0.00008957,-0.13646039,-0.1132
 7223,0.05479658,-0.00061834,0.00310045,-0.00098280,-0.01004696,-0.0263
 7442,0.01172738,-0.00076363,0.00154454,-0.00060436,-0.00124275,0.00028
 077,-0.00087572,0.00001569,-0.00002771,-0.00002984,0.00001463,0.000016
 03,0.00000465,0.14298522,-0.00001491,0.00006603,0.00002481,-0.00014597
 ,0.00009104,0.00012595,-0.00016146,-0.00018571,0.00002889,0.00114080,0
 .00299508,0.00224126,-0.00181646,0.00016573,-0.00138583,-0.01502051,-0
 .01466323,0.00828686,-0.00030304,-0.00000109,-0.00039267,0.00046202,-0
 .00025862,-0.00017676,0.00046261,0.00044482,-0.00008855,-0.00000440,-0
 .00011272,0.00000364,-0.11333532,-0.22099344,0.08570796,0.00344831,-0.
 00182709,0.00348152,0.00319726,0.00476121,-0.00173625,0.00111635,-0.00
 030658,-0.00009822,-0.00017599,0.00061999,0.00028550,-0.00001931,0.000
 05397,-0.00001554,0.00002725,-0.00002344,0.00002742,0.12255292,0.23015
 973,0.00019126,-0.00014272,0.00002812,-0.00037342,-0.00018516,0.000172
 47,0.00007417,0.00017703,-0.00002114,0.00009995,0.00245096,0.00710836,
 -0.00045411,-0.00112509,-0.00253331,0.00630951,0.00642798,0.00003807,-
 0.00033036,0.00067482,0.00015155,0.00063329,-0.00043105,-0.00010717,0.
 00012468,-0.00077903,-0.00015944,-0.00007770,0.00051081,-0.00003654,0.
 05503294,0.08619338,-0.07581063,-0.00128825,0.00354698,0.00561023,-0.0
 0115268,-0.00033969,0.00145172,-0.00012618,-0.00030918,-0.00036270,-0.
 00090697,-0.00024578,-0.00022837,0.00003913,-0.00001947,-0.00010085,0.
 00000452,-0.00001638,0.00001582,-0.05808956,-0.09467371,0.06881702,0.0
 0031792,-0.00006567,0.00000260,-0.00010930,0.00011747,-0.00013160,0.00
 018386,0.00023043,-0.00004320,-0.00655793,0.00136557,-0.00000704,0.000
 89396,0.00005942,-0.00014375,0.01057339,-0.01604874,0.00666905,0.00010
 330,-0.00011788,-0.00007919,-0.00065438,-0.00020196,0.00057464,-0.0000
 1003,-0.00029088,0.00000146,-0.00030615,0.00024581,0.00001648,-0.00180
 553,-0.00299935,0.00179033,-0.09834547,0.09040830,-0.03861211,-0.00120
 117,-0.00136420,0.00055986,-0.00527785,0.02824370,-0.01171654,0.000017
 32,0.00004587,0.00001514,-0.00121091,0.00001278,0.00095920,0.00000036,
 -0.00000248,0.00002753,0.00051019,-0.00084601,0.00042645,0.10188001,0.
 00013256,-0.00004123,0.00003604,-0.00037290,0.00024662,-0.00012204,0.0
 0002952,0.00010755,-0.00000051,0.00070698,0.00315930,0.00241022,0.0018
 1207,-0.00012518,-0.00151131,0.01004021,-0.01446079,0.00720083,-0.0005
 0001,-0.00011624,-0.00013466,0.00043373,0.00011213,-0.00032873,0.00015
 371,-0.00027546,0.00000033,-0.00006778,0.00026408,-0.00003342,-0.00335
 718,-0.00066262,0.00340499,0.09026254,-0.25741112,0.09500666,-0.001025
 93,0.00010163,-0.00017272,-0.00109100,-0.00014376,0.00038711,0.0000262
 7,0.00004749,0.00000528,0.00045785,0.00028731,0.00017482,-0.00001934,-
 0.00001881,0.00002584,0.00066025,-0.00070187,0.00027252,-0.09859128,0.
 27003482,0.00005420,-0.00003121,0.00002413,-0.00005774,-0.00034296,-0.
 00004274,-0.00012386,-0.00009954,0.00000850,0.00051506,0.00267228,0.00
 695799,0.00072426,-0.00186308,-0.00268798,-0.00603978,0.00784717,0.000
 02989,-0.00056857,-0.00016009,0.00010494,0.00060881,0.00108582,-0.0001
 7621,0.00024976,-0.00009119,0.00007988,-0.00009506,0.00006462,-0.00010
 915,0.00225994,0.00295373,0.00561700,-0.03875174,0.09590783,-0.0769071
 3,-0.00015041,-0.00044891,-0.00029684,0.00143038,-0.00096382,0.0016879
 7,-0.00004640,-0.00001926,-0.00004484,0.00082798,-0.00036826,-0.000216
 56,0.00004937,-0.00001306,0.00006637,-0.00031513,0.00038122,0.00014162
 ,0.03977200,-0.10457089,0.06999977,-0.00030753,0.00003591,0.00000260,-
 0.00028496,0.00009613,0.00009826,-0.00012274,-0.00013709,0.00002105,0.
 01213733,-0.02182286,0.00826821,-0.00000228,0.00140682,-0.00044996,-0.
 00542764,-0.00088951,0.00088725,0.00002287,0.00010663,0.00002999,-0.00
 028368,-0.00018947,-0.00011405,0.00003598,0.00017840,0.00002285,0.0003
 5548,-0.00000980,-0.00000869,-0.00974252,0.02630540,-0.01028573,-0.000
 36428,-0.00088273,0.00035426,-0.12219693,0.10981603,-0.04155268,-0.000
 33655,-0.00383200,0.00197420,0.00002202,-0.00000837,0.00000090,0.00000
 946,0.00001988,-0.00002338,-0.00004452,-0.00002910,0.00001845,0.000883
 38,-0.00042139,-0.00008510,0.00016980,0.00008939,-0.00010549,0.1251637
 3,0.00021723,-0.00002269,-0.00000753,0.00017653,0.00001572,0.00004414,
 0.00007214,0.00008842,-0.00001426,0.00359599,-0.02691000,0.00932955,-0
 .00002083,-0.00013326,-0.00015594,-0.00034875,0.00252740,0.00206458,0.
 00000028,-0.00012517,0.00000440,-0.00005545,0.00014223,-0.00006837,-0.
 00000872,-0.00012721,-0.00000957,-0.00024050,-0.00000178,0.00000323,-0
 .00079963,0.00217672,0.00192917,0.00003118,-0.00004883,-0.00026796,0.1
 0877425,-0.23321569,0.07416281,-0.00294043,0.00073913,0.00407021,-0.00
 004471,0.00000238,-0.00001160,-0.00001515,0.00001011,-0.00001103,0.000
 00920,0.00001848,0.00001502,0.00020496,-0.00009677,-0.00141246,0.00018
 284,-0.00027061,-0.00054180,-0.10922245,0.25594995,-0.00011894,0.00000
 490,-0.00001049,-0.00020764,-0.00007758,0.00002536,-0.00002063,-0.0000
 3248,0.00000169,-0.00255021,0.01003118,-0.00766239,-0.00002091,-0.0000
 9841,-0.00026918,0.00088893,0.00210005,0.00652077,-0.00004884,-0.00000
 818,-0.00003206,0.00019504,-0.00003176,-0.00016597,-0.00001191,0.00005
 073,0.00003245,0.00013809,0.00004752,0.00002071,0.00110399,0.00080693,
 0.00642069,0.00001891,-0.00030035,-0.00059364,-0.04080692,0.07429399,-
 0.07058867,0.00147243,0.00430644,0.00837163,-0.00004604,0.00001554,0.0
 0000037,-0.00001206,-0.00000798,-0.00002670,0.00000354,-0.00001350,0.0
 0001463,-0.00034939,-0.00143620,-0.00287212,-0.00017795,-0.00054960,-0
 .00134594,0.04071102,-0.08960220,0.06189243,-0.00032975,0.00004666,0.0
 0000167,-0.00025768,-0.00001314,-0.00001238,-0.00015820,-0.00012403,0.
 00001341,0.01409715,0.01398226,-0.00668384,-0.00024389,-0.00140127,0.0
 0036549,-0.00495041,0.00231636,-0.00031136,-0.00037333,0.00030015,0.00
 009432,0.00013617,-0.00009252,-0.00005215,0.00000023,0.00007916,-0.000
 03243,0.00037302,-0.00003746,0.00001286,-0.00020391,0.00089718,-0.0004
 1690,-0.01387909,-0.02313849,0.01087072,0.00093029,0.00385660,-0.00106
 400,-0.16550456,-0.12159887,0.05644264,0.00002819,-0.00002713,0.000013
 15,0.00001926,-0.00000596,0.00000499,-0.00001846,-0.00002317,-0.000008
 35,0.00010573,-0.00016993,-0.00002360,0.00083969,0.00022044,-0.0002400
 6,0.00030576,0.00043708,-0.00016158,0.16908035,-0.00015236,0.00001548,
 -0.00000003,-0.00014835,-0.00003358,0.00000133,-0.00004405,-0.00006012
 ,0.00001442,-0.01139428,-0.02883115,0.01094732,0.00004749,0.00017855,-
 0.00017068,0.00177378,0.00191730,0.00213580,0.00006728,0.00008577,-0.0
 0005591,0.00006683,-0.00011531,0.00001330,0.00002119,0.00009032,0.0000
 2545,0.00016493,0.00001033,0.00000297,-0.00003918,-0.00017792,-0.00021
 076,0.00396966,0.00657802,-0.00012657,0.00298533,-0.00057294,0.0043414
 3,-0.12061083,-0.18800133,0.06694358,0.00001679,0.00000008,-0.00000345
 ,0.00003072,-0.00000846,-0.00002281,-0.00000474,-0.00001210,-0.0000043
 2,-0.00026175,-0.00019901,-0.00055395,-0.00036138,-0.00011912,-0.00139
 982,-0.00062220,-0.00070873,0.00049652,0.12448978,0.20995584,0.0001510
 5,-0.00000639,-0.00000818,0.00015610,0.00004053,0.00006568,0.00001291,
 0.00003788,0.00001302,0.00412886,0.00912775,-0.00758558,0.00003170,-0.
 00026147,-0.00028550,-0.00043306,0.00215698,0.00667684,-0.00007070,0.0
 0001757,-0.00011630,-0.00003527,0.00003996,-0.00005019,0.00006662,-0.0
 0011438,-0.00002757,-0.00016886,-0.00001816,0.00000212,-0.00015345,-0.
 00025192,-0.00064617,-0.00059927,0.00138144,0.00622628,-0.00050673,0.0
 0441800,0.00830234,0.05579139,0.06739535,-0.07252419,0.00000965,-0.000
 00994,-0.00001376,0.00004371,0.00001987,-0.00003489,0.00000354,0.00001
 070,0.00000860,0.00004391,-0.00054862,-0.00134529,0.00005012,-0.001530
 06,-0.00285794,0.00026372,0.00046333,0.00027210,-0.05878559,-0.0823652
 0,0.06391755,0.00158664,0.00199118,0.00015881,0.00134429,-0.00101371,0
 .00034218,-0.11403066,0.11123519,0.05602139,-0.00002028,0.00002223,-0.
 00000842,0.00002097,0.00030183,-0.00000534,0.00011646,-0.00000549,-0.0
 0000706,0.00097287,-0.00097272,-0.00016096,-0.00025654,-0.00017111,-0.
 00005828,0.01236095,-0.02229690,-0.01276595,-0.00588010,-0.00268753,-0
 .00055638,-0.00002956,0.00000255,0.00002654,-0.00003125,-0.00002374,0.
 00001379,0.00000095,0.00000297,-0.00000164,0.00003242,-0.00000673,-0.0
 0000828,-0.00082714,0.00074521,0.00019849,-0.00003955,0.00007438,-0.00
 000014,-0.00022114,-0.00025239,-0.00006005,-0.00000543,0.00000713,-0.0
 0001396,0.00000740,0.00000781,-0.00000822,-0.00000184,0.00000135,-0.00
 000089,-0.00000039,-0.00000023,0.00000268,0.10877874,-0.00075693,0.000
 37131,-0.00008952,-0.00038409,-0.00191174,-0.00025028,0.10612451,-0.29
 696986,-0.16053782,0.00009117,-0.00001935,-0.00000045,-0.00063605,-0.0
 0107619,0.00109045,-0.00018955,0.00016848,0.00003732,0.00406199,0.0022
 9539,0.00118704,0.00145701,0.00099374,0.00000113,0.00600155,-0.0258202
 2,-0.01197750,-0.00298612,0.00033716,-0.00132065,0.00009043,-0.0000203
 5,0.00000098,0.00012121,-0.00002971,-0.00002237,-0.00004882,0.00001105
 ,0.00000960,-0.00005223,0.00002686,-0.00002013,-0.00056405,0.00047727,
 -0.00083234,-0.00007490,0.00002646,-0.00009647,-0.00030098,-0.00024314
 ,0.00002945,-0.00003755,0.00002533,-0.00001949,-0.00002645,-0.00000302
 ,0.00001196,0.00001559,-0.00000984,0.00000259,0.00001782,0.00000690,0.
 00000128,-0.11127883,0.32526687,0.00056117,0.00084080,0.00042350,0.001
 43635,0.00101604,0.00112167,0.06209185,-0.19719826,-0.10912941,-0.0000
 9590,0.00002490,0.00000366,0.00047881,-0.00002056,-0.00032518,0.000267
 57,-0.00005904,-0.00005613,-0.00210087,0.00056393,0.00025828,-0.001643
 46,-0.00040634,0.00009766,0.00560282,0.00936259,-0.00306294,-0.0006217
 3,-0.00108230,0.00144926,-0.00011334,0.00003915,0.00000309,-0.00011082
 ,-0.00000054,0.00003061,0.00005091,-0.00001449,-0.00001414,0.00006636,
 -0.00002098,-0.00000027,-0.00047627,-0.00018693,-0.00032153,0.00003103
 ,0.00005761,-0.00010805,0.00006516,0.00023068,-0.00022619,0.00002531,-
 0.00001874,0.00002588,0.00002628,0.00000926,-0.00000783,-0.00001349,0.
 00000885,-0.00000298,-0.00001326,-0.00000602,0.00000138,-0.06263477,0.
 17511039,0.10800850,-0.00002960,0.00091942,0.00035696,-0.00175126,-0.0
 0041792,-0.00021374,-0.38223298,0.09771999,-0.09116230,0.00007074,-0.0
 0001271,0.00000071,-0.00107916,-0.00016986,0.00009671,-0.00022110,-0.0
 0017284,0.00011997,0.00238223,-0.00245874,-0.00140593,0.00100415,0.000
 67272,0.00008446,-0.02594623,-0.00098125,-0.00645776,0.00002129,0.0028
 7394,0.00134420,0.00008987,-0.00003060,-0.00000582,0.00001501,0.000035
 44,-0.00002445,-0.00003412,0.00000735,0.00000072,-0.00004532,-0.000006
 36,0.00000908,0.00017051,0.00009060,-0.00012440,-0.00002053,-0.0000434
 9,0.00007659,0.00013480,-0.00002756,-0.00010088,-0.00002392,0.00002004
 ,-0.00001402,-0.00001849,-0.00000790,0.00001068,0.00000966,-0.00000641
 ,0.00000196,0.00000383,0.00000556,-0.00000303,-0.00387781,-0.00064473,
 -0.00287973,0.41137842,0.00412736,0.00299860,0.00164254,0.00192121,0.0
 0159977,0.00077890,0.10838502,-0.09058793,0.00751607,0.00003061,-0.000
 02020,-0.00000371,-0.00058588,0.00133363,0.00025210,-0.00027595,-0.000
 35789,0.00000824,-0.00301991,-0.00549014,-0.00122291,-0.00023796,-0.00
 023766,-0.00015420,-0.02970054,0.01138163,-0.00591906,-0.00759835,-0.0
 0219383,-0.00118447,0.00005474,-0.00003537,-0.00001090,-0.00002271,0.0
 0007512,-0.00002040,-0.00001746,0.00000091,-0.00000157,-0.00005023,-0.
 00000340,0.00004877,-0.00005909,-0.00004064,0.00001645,0.00012629,-0.0
 0002204,-0.00008861,-0.00002719,-0.00003133,-0.00002517,0.00000782,-0.
 00001335,-0.00000133,0.00000408,-0.00001111,-0.00001073,-0.00000321,0.
 00000003,0.00000184,-0.00001152,0.00000116,-0.00000450,0.02431756,-0.0
 0390339,0.01175002,-0.09736469,0.08555742,0.00251735,0.00200575,-0.001
 27861,0.00193983,0.00125103,-0.00013117,-0.12312853,0.00804925,-0.0382
 0103,-0.00006623,0.00000165,-0.00000771,0.00106150,0.00011105,0.002224
 02,0.00018638,-0.00003447,-0.00002036,-0.00228226,-0.00049644,0.001403
 18,-0.00166805,-0.00069592,-0.00022591,0.00592382,0.00746097,-0.005137
 34,-0.00415745,-0.00222716,0.00013597,-0.00008083,0.00002575,-0.000016
 58,-0.00008174,-0.00002257,-0.00003900,0.00003078,0.00000093,0.0000082
 6,0.00001491,0.00000700,0.00000526,-0.00010142,0.00016753,-0.00074745,
 0.00006697,0.00004449,-0.00007519,0.00000069,0.00003275,0.00014501,0.0
 0001548,-0.00002392,0.00001670,0.00002026,0.00002006,-0.00002491,-0.00
 001418,0.00000743,-0.00000268,-0.00001376,-0.00000262,0.00000966,0.019
 52647,-0.00231517,0.00183115,0.10029001,-0.01336738,0.04012875\\-0.000
 02439,-0.00000064,-0.00000315,-0.00002449,-0.00000447,-0.00000637,0.00
 001875,-0.00000704,0.00000251,-0.00000965,0.00000534,-0.00000043,-0.00
 000666,-0.00001036,-0.00000142,0.00000189,0.00000648,-0.00000093,0.000
 01836,0.00000752,0.00000428,0.00001954,0.00000063,0.00000120,-0.000039
 60,-0.00000045,-0.00000321,0.00005245,0.00000239,0.00000286,-0.0000006
 8,0.00000401,-0.00000038,-0.00000604,-0.00000420,0.00000225,0.00000356
 ,0.00000442,-0.00000627,0.00000649,-0.00000785,0.00000774,-0.00000213,
 -0.00000231,0.00000015,-0.00000187,-0.00000140,-0.00000100,-0.00000680
 ,-0.00000644,0.00000071,0.00000004,0.00000054,0.00000164,0.00000041,0.
 00000108,-0.00000196,0.00000352,0.00000199,0.00000197,0.00000166,0.000
 00096,-0.00000114,0.00000002,0.00000396,-0.00000184,-0.00000438,0.0000
 0585,0.00000278\\\@
 The archive entry for this job was punched.


 Experience is what you get when you don't get what you want.
 -- Dan Stanford
 Job cpu time:       0 days  3 hours 49 minutes 21.1 seconds.
 Elapsed time:       0 days  0 hours  2 minutes  7.8 seconds.
 File lengths (MBytes):  RWF=    354 Int=      0 D2E=      0 Chk=     18 Scr=      1
 Normal termination of Gaussian 16 at Mon Mar  2 06:45:52 2026.
